
             +---------------------------------------------------+
             |                                                   |
             |                   WANNIER90                       |
             |                                                   |
             +---------------------------------------------------+
             |                                                   |
             |        Welcome to the Maximally-Localized         |
             |        Generalized Wannier Functions code         |
             |            http://www.wannier.org                 |
             |                                                   |
             |  Wannier90 v2.x Authors:                          |
             |    Arash A. Mostofi  (Imperial College London)    |
             |    Giovanni Pizzi    (EPFL)                       |
             |    Ivo Souza         (Universidad del Pais Vasco) |
             |    Jonathan R. Yates (University of Oxford)       |
             |                                                   |
             |  Wannier90 Contributors:                          |
             |    Young-Su Lee       (KIST, S. Korea)            |
             |    Matthew Shelley    (Imperial College London)   |
             |    Nicolas Poilvert   (Penn State University)     |
             |    Raffaello Bianco   (Paris 6 and CNRS)          |
             |    Gabriele Sclauzero (ETH Zurich)                |
             |    David Strubbe (MIT, USA)                       |
             |    Rei Sakuma (Lund University, Sweden)           |
             |    Yusuke Nomura (U. Tokyo, Japan)                |
             |    Takashi Koretsune (Riken, Japan)               |
             |    Yoshiro Nohara (ASMS Co. Ltd., Japan)          |
             |    Ryotaro Arita (Riken, Japan)                   |
             |    Lorenzo Paulatto (UPMC Paris)                  |
             |    Florian Thole (ETH Zurich)                     |
             |    Pablo Garcia Fernandez (Unican, Spain)         |
             |    Dominik Gresch (ETH Zurich)                    |
             |    Samuel Ponce (University of Oxford)            |
             |    Marco Gibertini (EPFL)                         |
             |    Christian Stieger (ETHZ, CH)                   |
             |    Stepan Tsirkin (Universidad del Pais Vasco)    |
             |                                                   |
             |  Wannier77 Authors:                               |
             |    Nicola Marzari    (EPFL)                       |
             |    Ivo Souza         (Universidad del Pais Vasco) |
             |    David Vanderbilt  (Rutgers University)         |
             |                                                   |
             |  Please cite                                      |
             |                                                   |
             |  [ref] "An updated version of Wannier90:          |
             |        A Tool for Obtaining Maximally Localised   |
             |        Wannier Functions", A. A. Mostofi,         |
             |        J. R. Yates, G. Pizzi, Y. S. Lee,          |
             |        I. Souza, D. Vanderbilt and N. Marzari,    |
             |        Comput. Phys. Commun. 185, 2309 (2014)     |
             |        http://dx.doi.org/10.1016/j.cpc.2014.05.003|
             |                                                   |
             |  in any publications arising from the use of      |
             |  this code. For the method please cite            |
             |                                                   |
             |  [ref] "Maximally Localized Generalised Wannier   |
             |         Functions for Composite Energy Bands"     |
             |         N. Marzari and D. Vanderbilt              |
             |         Phys. Rev. B 56 12847 (1997)              |
             |                                                   |
             |  [ref] "Maximally Localized Wannier Functions     |
             |         for Entangled Energy Bands"               |
             |         I. Souza, N. Marzari and D. Vanderbilt    |
             |         Phys. Rev. B 65 035109 (2001)             |
             |                                                   |
             |                                                   |
             | Copyright (c) 1996-2017                           |
             |        Arash A. Mostofi, Jonathan R. Yates,       |
             |        Young-Su Lee, Giovanni Pizzi, Ivo Souza,   |
             |        David Vanderbilt and Nicola Marzari        |
             |                                                   |
             |      Release: 2.1.0+git   13th January 2017       |
             |                                                   |
             | This program is free software; you can            |
             | redistribute it and/or modify it under the terms  |
             | of the GNU General Public License as published by |
             | the Free Software Foundation; either version 2 of |
             | the License, or (at your option) any later version|
             |                                                   |
             | This program is distributed in the hope that it   |
             | will be useful, but WITHOUT ANY WARRANTY; without |
             | even the implied warranty of MERCHANTABILITY or   |
             | FITNESS FOR A PARTICULAR PURPOSE. See the GNU     |
             | General Public License for more details.          |
             |                                                   |
             | You should have received a copy of the GNU General|
             | Public License along with this program; if not,   |
             | write to the Free Software Foundation, Inc.,      |
             | 675 Mass Ave, Cambridge, MA 02139, USA.           |
             |                                                   |
             +---------------------------------------------------+
             |    Execution started on 14Oct2018 at 10:52:05     |
             +---------------------------------------------------+
 
 ******************************************************************************
 * -> Using CODATA 2006 constant values                                       *
 *    (http://physics.nist.gov/cuu/Constants/index.html)                      *
 * -> Using Bohr value from CODATA                                            *
 ******************************************************************************
 

 Running in serial (with serial executable)

                                    ------
                                    SYSTEM
                                    ------

                            Lattice Vectors (Bohr)
                    a_1    -5.100000   0.000000   5.100000
                    a_2     0.000000   5.100000   5.100000
                    a_3    -5.100000   5.100000   0.000000

                   Unit Cell Volume:     265.30200  (Bohr^3)

                      Reciprocal-Space Vectors (Bohr^-1)
                    b_1    -0.615999  -0.615999   0.615999
                    b_2     0.615999   0.615999   0.615999
                    b_3    -0.615999   0.615999  -0.615999
  
 *----------------------------------------------------------------------------*
 |   Site       Fractional Coordinate          Cartesian Coordinate (Bohr)    |
 +----------------------------------------------------------------------------+
 | Si   1  -0.25000   0.75000  -0.25000   |    2.55000   2.55000   2.55000    |
 | Si   2   0.00000   0.00000   0.00000   |    0.00000   0.00000   0.00000    |
 *----------------------------------------------------------------------------*
                                -----------
                                PROJECTIONS
                                -----------
  
 +----------------------------------------------------------------------------+
 |     Frac. Coord.   l mr  r        z-axis               x-axis          Z/a |
 +----------------------------------------------------------------------------+
 | -0.12 -0.12  0.38  0  1  1  0.000  0.000  1.000  1.000  0.000  0.000   1.0 |
 |  0.38 -0.12 -0.12  0  1  1  0.000  0.000  1.000  1.000  0.000  0.000   1.0 |
 | -0.12  0.38 -0.12  0  1  1  0.000  0.000  1.000  1.000  0.000  0.000   1.0 |
 | -0.12 -0.12 -0.12  0  1  1  0.000  0.000  1.000  1.000  0.000  0.000   1.0 |
 | -0.25  0.75 -0.25 -3  1  1  0.000  0.000  1.000  1.000  0.000  0.000   1.0 |
 | -0.25  0.75 -0.25 -3  2  1  0.000  0.000  1.000  1.000  0.000  0.000   1.0 |
 | -0.25  0.75 -0.25 -3  3  1  0.000  0.000  1.000  1.000  0.000  0.000   1.0 |
 | -0.25  0.75 -0.25 -3  4  1  0.000  0.000  1.000  1.000  0.000  0.000   1.0 |
 |  0.00  0.00  0.00 -3  1  1  0.000  0.000  1.000  1.000  0.000  0.000   1.0 |
 |  0.00  0.00  0.00 -3  2  1  0.000  0.000  1.000  1.000  0.000  0.000   1.0 |
 |  0.00  0.00  0.00 -3  3  1  0.000  0.000  1.000  1.000  0.000  0.000   1.0 |
 |  0.00  0.00  0.00 -3  4  1  0.000  0.000  1.000  1.000  0.000  0.000   1.0 |
 +----------------------------------------------------------------------------+
  
                              --------------------
                              SELECTED PROJECTIONS
                              --------------------
  
 +----------------------------------------------------------------------------+
 |     Frac. Coord.   l mr  r        z-axis               x-axis          Z/a |
 +----------------------------------------------------------------------------+
 | -0.12 -0.12  0.38  0  1  1  0.000  0.000  1.000  1.000  0.000  0.000   1.0 |
 |  0.38 -0.12 -0.12  0  1  1  0.000  0.000  1.000  1.000  0.000  0.000   1.0 |
 | -0.12  0.38 -0.12  0  1  1  0.000  0.000  1.000  1.000  0.000  0.000   1.0 |
 | -0.12 -0.12 -0.12  0  1  1  0.000  0.000  1.000  1.000  0.000  0.000   1.0 |
 +----------------------------------------------------------------------------+
  
                                ------------
                                K-POINT GRID
                                ------------
  
             Grid size =  4 x  4 x  4      Total points =   64
  
 *----------------------------------------------------------------------------*
 | k-point      Fractional Coordinate        Cartesian Coordinate (Bohr^-1)   |
 +----------------------------------------------------------------------------+
 |     1    0.00000   0.00000   0.00000   |    0.00000   0.00000   0.00000    |
 |     2    0.00000   0.00000   0.25000   |   -0.15400   0.15400  -0.15400    |
 |     3    0.00000   0.00000   0.50000   |   -0.30800   0.30800  -0.30800    |
 |     4    0.00000   0.00000   0.75000   |   -0.46200   0.46200  -0.46200    |
 |     5    0.00000   0.25000   0.00000   |    0.15400   0.15400   0.15400    |
 |     6    0.00000   0.25000   0.25000   |    0.00000   0.30800   0.00000    |
 |     7    0.00000   0.25000   0.50000   |   -0.15400   0.46200  -0.15400    |
 |     8    0.00000   0.25000   0.75000   |   -0.30800   0.61600  -0.30800    |
 |     9    0.00000   0.50000   0.00000   |    0.30800   0.30800   0.30800    |
 |    10    0.00000   0.50000   0.25000   |    0.15400   0.46200   0.15400    |
 |    11    0.00000   0.50000   0.50000   |    0.00000   0.61600   0.00000    |
 |    12    0.00000   0.50000   0.75000   |   -0.15400   0.77000  -0.15400    |
 |    13    0.00000   0.75000   0.00000   |    0.46200   0.46200   0.46200    |
 |    14    0.00000   0.75000   0.25000   |    0.30800   0.61600   0.30800    |
 |    15    0.00000   0.75000   0.50000   |    0.15400   0.77000   0.15400    |
 |    16    0.00000   0.75000   0.75000   |    0.00000   0.92400   0.00000    |
 |    17    0.25000   0.00000   0.00000   |   -0.15400  -0.15400   0.15400    |
 |    18    0.25000   0.00000   0.25000   |   -0.30800   0.00000   0.00000    |
 |    19    0.25000   0.00000   0.50000   |   -0.46200   0.15400  -0.15400    |
 |    20    0.25000   0.00000   0.75000   |   -0.61600   0.30800  -0.30800    |
 |    21    0.25000   0.25000   0.00000   |    0.00000   0.00000   0.30800    |
 |    22    0.25000   0.25000   0.25000   |   -0.15400   0.15400   0.15400    |
 |    23    0.25000   0.25000   0.50000   |   -0.30800   0.30800   0.00000    |
 |    24    0.25000   0.25000   0.75000   |   -0.46200   0.46200  -0.15400    |
 |    25    0.25000   0.50000   0.00000   |    0.15400   0.15400   0.46200    |
 |    26    0.25000   0.50000   0.25000   |    0.00000   0.30800   0.30800    |
 |    27    0.25000   0.50000   0.50000   |   -0.15400   0.46200   0.15400    |
 |    28    0.25000   0.50000   0.75000   |   -0.30800   0.61600   0.00000    |
 |    29    0.25000   0.75000   0.00000   |    0.30800   0.30800   0.61600    |
 |    30    0.25000   0.75000   0.25000   |    0.15400   0.46200   0.46200    |
 |    31    0.25000   0.75000   0.50000   |   -0.00000   0.61600   0.30800    |
 |    32    0.25000   0.75000   0.75000   |   -0.15400   0.77000   0.15400    |
 |    33    0.50000   0.00000   0.00000   |   -0.30800  -0.30800   0.30800    |
 |    34    0.50000   0.00000   0.25000   |   -0.46200  -0.15400   0.15400    |
 |    35    0.50000   0.00000   0.50000   |   -0.61600   0.00000   0.00000    |
 |    36    0.50000   0.00000   0.75000   |   -0.77000   0.15400  -0.15400    |
 |    37    0.50000   0.25000   0.00000   |   -0.15400  -0.15400   0.46200    |
 |    38    0.50000   0.25000   0.25000   |   -0.30800   0.00000   0.30800    |
 |    39    0.50000   0.25000   0.50000   |   -0.46200   0.15400   0.15400    |
 |    40    0.50000   0.25000   0.75000   |   -0.61600   0.30800   0.00000    |
 |    41    0.50000   0.50000   0.00000   |    0.00000   0.00000   0.61600    |
 |    42    0.50000   0.50000   0.25000   |   -0.15400   0.15400   0.46200    |
 |    43    0.50000   0.50000   0.50000   |   -0.30800   0.30800   0.30800    |
 |    44    0.50000   0.50000   0.75000   |   -0.46200   0.46200   0.15400    |
 |    45    0.50000   0.75000   0.00000   |    0.15400   0.15400   0.77000    |
 |    46    0.50000   0.75000   0.25000   |   -0.00000   0.30800   0.61600    |
 |    47    0.50000   0.75000   0.50000   |   -0.15400   0.46200   0.46200    |
 |    48    0.50000   0.75000   0.75000   |   -0.30800   0.61600   0.30800    |
 |    49    0.75000   0.00000   0.00000   |   -0.46200  -0.46200   0.46200    |
 |    50    0.75000   0.00000   0.25000   |   -0.61600  -0.30800   0.30800    |
 |    51    0.75000   0.00000   0.50000   |   -0.77000  -0.15400   0.15400    |
 |    52    0.75000   0.00000   0.75000   |   -0.92400   0.00000   0.00000    |
 |    53    0.75000   0.25000   0.00000   |   -0.30800  -0.30800   0.61600    |
 |    54    0.75000   0.25000   0.25000   |   -0.46200  -0.15400   0.46200    |
 |    55    0.75000   0.25000   0.50000   |   -0.61600   0.00000   0.30800    |
 |    56    0.75000   0.25000   0.75000   |   -0.77000   0.15400   0.15400    |
 |    57    0.75000   0.50000   0.00000   |   -0.15400  -0.15400   0.77000    |
 |    58    0.75000   0.50000   0.25000   |   -0.30800   0.00000   0.61600    |
 |    59    0.75000   0.50000   0.50000   |   -0.46200   0.15400   0.46200    |
 |    60    0.75000   0.50000   0.75000   |   -0.61600   0.30800   0.30800    |
 |    61    0.75000   0.75000   0.00000   |    0.00000   0.00000   0.92400    |
 |    62    0.75000   0.75000   0.25000   |   -0.15400   0.15400   0.77000    |
 |    63    0.75000   0.75000   0.50000   |   -0.30800   0.30800   0.61600    |
 |    64    0.75000   0.75000   0.75000   |   -0.46200   0.46200   0.46200    |
 *----------------------------------------------------------------------------*
  
  
 *---------------------------------- MAIN ------------------------------------*
 |  Number of Wannier Functions               :                 4             |
 |  Number of Objective Wannier Functions     :                 4             |
 |  Number of input Bloch states              :                12             |
 |  Output verbosity (1=low, 5=high)          :                 2             |
 |  Timing Level (1=low, 5=high)              :                 1             |
 |  Optimisation (0=memory, 3=speed)          :                 3             |
 |  Length Unit                               :              Bohr             |
 |  Post-processing setup (write *.nnkp)      :                 F             |
 |  Using Gamma-only branch of algorithms     :                 F             |
 *----------------------------------------------------------------------------*
 *------------------------------- WANNIERISE ---------------------------------*
 |  Total number of iterations                :               100             |
 |  Number of CG steps before reset           :                 5             |
 |  Trial step length for line search         :             2.000             |
 |  Convergence tolerence                     :         0.100E-09             |
 |  Convergence window                        :                -1             |
 |  Iterations between writing output         :                10             |
 |  Iterations between backing up to disk     :                10             |
 |  Write r^2_nm to file                      :                 F             |
 |  Write xyz WF centres to file              :                 F             |
 |  Write on-site energies <0n|H|0n> to file  :                 F             |
 |  Use guiding centre to control phases      :                 F             |
 |  Use phases for initial projections        :                 F             |
 *----------------------------------------------------------------------------*
 *------------------------------- DISENTANGLE --------------------------------*
 |  Using band disentanglement                :                 T             |
 |  Total number of iterations                :               100             |
 |  Mixing ratio                              :             0.500             |
 |  Convergence tolerence                     :         1.000E-10             |
 |  Convergence window                        :                 3             |
 *----------------------------------------------------------------------------*
 Time to read parameters        0.059 (sec)

 *---------------------------------- K-MESH ----------------------------------*
 +----------------------------------------------------------------------------+
 |                    Distance to Nearest-Neighbour Shells                    |
 |                    ------------------------------------                    |
 |          Shell             Distance (Bohr^-1)         Multiplicity         |
 |          -----             ------------------         ------------         |
 |             1                   0.266735                      8            |
 |             2                   0.307999                      6            |
 |             3                   0.435577                     12            |
 |             4                   0.510759                     24            |
 |             5                   0.533470                      8            |
 |             6                   0.615999                      6            |
 |             7                   0.671269                     24            |
 |             8                   0.688707                     24            |
 |             9                   0.754441                     24            |
 |            10                   0.800206                     32            |
 |            11                   0.871154                     12            |
 |            12                   0.911074                     48            |
 +----------------------------------------------------------------------------+
 | The b-vectors are chosen automatically                                     |
 | Shell:  1 w_b    5.2707280     (Bohr^2)                                    |
 | The following shells are used:   1                                         |
 +----------------------------------------------------------------------------+
 |                        Shell   # Nearest-Neighbours                        |
 |                        -----   --------------------                        |
 |                          1               8                                 |
 +----------------------------------------------------------------------------+
 | Completeness relation is fully satisfied [Eq. (B1), PRB 56, 12847 (1997)]  |
 +----------------------------------------------------------------------------+
 |                 b_k Vectors (Bohr^-1) and Weights (Bohr^2)                 |
 |                 ------------------------------------------                 |
 |            No.         b_k(x)      b_k(y)      b_k(z)        w_b           |
 |            ---        --------------------------------     --------        |
 |             1        -0.154000    0.154000   -0.154000     5.270728        |
 |             2         0.154000    0.154000    0.154000     5.270728        |
 |             3        -0.154000   -0.154000    0.154000     5.270728        |
 |             4        -0.154000    0.154000    0.154000     5.270728        |
 |             5         0.154000   -0.154000    0.154000     5.270728        |
 |             6        -0.154000   -0.154000   -0.154000     5.270728        |
 |             7         0.154000    0.154000   -0.154000     5.270728        |
 |             8         0.154000   -0.154000   -0.154000     5.270728        |
 +----------------------------------------------------------------------------+
 |                           b_k Directions (Bohr^-1)                         |
 |                           ------------------------                         |
 |            No.           x           y           z                         |
 |            ---        --------------------------------                     |
 |             1        -0.154000    0.154000   -0.154000                     |
 |             2         0.154000    0.154000    0.154000                     |
 |             3        -0.154000   -0.154000    0.154000                     |
 |             4        -0.154000    0.154000    0.154000                     |
 +----------------------------------------------------------------------------+
  
 Time to get kmesh              0.355 (sec)
 *============================================================================*
 |                              MEMORY ESTIMATE                               |
 |         Maximum RAM allocated during each phase of the calculation         |
 *============================================================================*
 |                        Disentanglement            1.57 Mb                  |
 |                            Wannierise:            0.47 Mb                  |
 |                                                                            |
 |   N.B. by setting optimisation=0 memory usage will be reduced to:          |
 |                        Disentanglement            1.57 Mb                  |
 |                            Wannierise:            0.35 Mb                  |
 |   However, this will result in more i/o and slow down the calculation      |
 |                          plot_wannier:            0.47 Mb                  |
 *----------------------------------------------------------------------------*
  
 Starting a new Wannier90 calculation ...


 Reading overlaps from silicon.mmn    :  Created on 14Oct2018 at 10:41:12

 Reading projections from silicon.amn :  Created on 14Oct2018 at 10:40:46

 Time to read overlaps          0.465 (sec)

 *------------------------------- DISENTANGLE --------------------------------*
 +----------------------------------------------------------------------------+
 |                              Energy  Windows                               |
 |                              ---------------                               |
 |                   Outer:   -5.69829  to    6.50000  (eV)                   |
 |                   Inner:   -5.69829  to    6.50000  (eV)                   |
 +----------------------------------------------------------------------------+
 |                        K-points with Frozen States                         |
 |                        ---------------------------                         |
 |     1     2     3     4     5     6     7     8     9    10    11    12    |
 |    13    14    15    16    17    18    19    20    21    22    23    24    |
 |    25    26    27    28    29    30    31    32    33    34    35    36    |
 |    37    38    39    40    41    42    43    44    45    46    47    48    |
 |    49    50    51    52    53    54    55    56    57    58    59    60    |
 |    61    62    63    64                                                    |
 +----------------------------------------------------------------------------+
   Number of target bands to extract:    4
 +----------------------------------------------------------------------------+
 |                                  Windows                                   |
 |                                  -------                                   |
 |               K-point      Ndimwin     Ndimfroz    Nfirstwin               |
 |               ----------------------------------------------               |
 |                   1            4            4           1                  |
 |                   2            4            4           1                  |
 |                   3            4            4           1                  |
 |                   4            4            4           1                  |
 |                   5            4            4           1                  |
 |                   6            4            4           1                  |
 |                   7            4            4           1                  |
 |                   8            4            4           1                  |
 |                   9            4            4           1                  |
 |                  10            4            4           1                  |
 |                  11            4            4           1                  |
 |                  12            4            4           1                  |
 |                  13            4            4           1                  |
 |                  14            4            4           1                  |
 |                  15            4            4           1                  |
 |                  16            4            4           1                  |
 |                  17            4            4           1                  |
 |                  18            4            4           1                  |
 |                  19            4            4           1                  |
 |                  20            4            4           1                  |
 |                  21            4            4           1                  |
 |                  22            4            4           1                  |
 |                  23            4            4           1                  |
 |                  24            4            4           1                  |
 |                  25            4            4           1                  |
 |                  26            4            4           1                  |
 |                  27            4            4           1                  |
 |                  28            4            4           1                  |
 |                  29            4            4           1                  |
 |                  30            4            4           1                  |
 |                  31            4            4           1                  |
 |                  32            4            4           1                  |
 |                  33            4            4           1                  |
 |                  34            4            4           1                  |
 |                  35            4            4           1                  |
 |                  36            4            4           1                  |
 |                  37            4            4           1                  |
 |                  38            4            4           1                  |
 |                  39            4            4           1                  |
 |                  40            4            4           1                  |
 |                  41            4            4           1                  |
 |                  42            4            4           1                  |
 |                  43            4            4           1                  |
 |                  44            4            4           1                  |
 |                  45            4            4           1                  |
 |                  46            4            4           1                  |
 |                  47            4            4           1                  |
 |                  48            4            4           1                  |
 |                  49            4            4           1                  |
 |                  50            4            4           1                  |
 |                  51            4            4           1                  |
 |                  52            4            4           1                  |
 |                  53            4            4           1                  |
 |                  54            4            4           1                  |
 |                  55            4            4           1                  |
 |                  56            4            4           1                  |
 |                  57            4            4           1                  |
 |                  58            4            4           1                  |
 |                  59            4            4           1                  |
 |                  60            4            4           1                  |
 |                  61            4            4           1                  |
 |                  62            4            4           1                  |
 |                  63            4            4           1                  |
 |                  64            4            4           1                  |
 +----------------------------------------------------------------------------+

                   Unitarised projection of Wannier functions                  
                   ------------------------------------------                  
   A_mn = <psi_m|g_n> --> S = A.A^+ --> U = S^-1/2.A
   In dis_project... done
   Using an inner window (linner = T)
   In dis_proj_froz... done

                   Extraction of optimally-connected subspace                  
                   ------------------------------------------                  
 +---------------------------------------------------------------------+<-- DIS
 |  Iter     Omega_I(i-1)      Omega_I(i)      Delta (frac.)    Time   |<-- DIS
 +---------------------------------------------------------------------+<-- DIS
       1      20.71710600      20.71710600       0.000E+00      0.00    <-- DIS
       2      20.71710600      20.71710600       0.000E+00      0.00    <-- DIS
       3      20.71710600      20.71710600       0.000E+00      0.00    <-- DIS

             <<<      Delta < 1.000E-10  over  3 iterations     >>>
             <<< Disentanglement convergence criteria satisfied >>>

        Final Omega_I    20.71710600 (Bohr^2)

 +----------------------------------------------------------------------------+

 Time to disentangle bands      0.045 (sec)

 Writing checkpoint file silicon.chk... done


 *------------------------------- WANNIERISE ---------------------------------*
 +--------------------------------------------------------------------+<-- CONV
 | Iter  Delta Spread     RMS Gradient      Spread (Bohr^2)     Time  |<-- CONV
 +--------------------------------------------------------------------+<-- CONV

 ------------------------------------------------------------------------------
 Initial State
  WF centre and spread    1  ( -1.275000,  1.275000, -1.275000 )     5.68583618
  WF centre and spread    2  ( -1.275000, -1.275000,  1.275000 )     5.68583618
  WF centre and spread    3  (  1.275000,  1.275000,  1.275000 )     5.68583618
  WF centre and spread    4  (  1.275000, -1.275000, -1.275000 )     5.68583618
  Sum of centres and spreads ( -0.000000, -0.000000,  0.000000 )    22.74334470

      0     0.227E+02     0.0000000000       22.7433447023       0.01  <-- CONV
        O_D=      0.0000000 O_OD=      2.0262387 O_TOT=     22.7433447 <-- SPRD
 ------------------------------------------------------------------------------
 Cycle:      1
  WF centre and spread    1  ( -1.275000,  1.275000, -1.275000 )     5.68463981
  WF centre and spread    2  ( -1.275000, -1.275000,  1.275000 )     5.68463981
  WF centre and spread    3  (  1.275000,  1.275000,  1.275000 )     5.68463981
  WF centre and spread    4  (  1.275000, -1.275000, -1.275000 )     5.68463981
  Sum of centres and spreads ( -0.000000, -0.000000,  0.000000 )    22.73855923

      1    -0.479E-02     0.0804225220       22.7385592326       0.02  <-- CONV
        O_D=      0.0000000 O_OD=      2.0214532 O_TOT=     22.7385592 <-- SPRD
 Delta: O_D= -0.4944871E-18 O_OD= -0.4785470E-02 O_TOT= -0.4785470E-02 <-- DLTA
 ------------------------------------------------------------------------------
 Cycle:     10
  WF centre and spread    1  ( -1.275000,  1.275000, -1.275000 )     5.68462413
  WF centre and spread    2  ( -1.275000, -1.275000,  1.275000 )     5.68462413
  WF centre and spread    3  (  1.275000,  1.275000,  1.275000 )     5.68462413
  WF centre and spread    4  (  1.275000, -1.275000, -1.275000 )     5.68462413
  Sum of centres and spreads ( -0.000000, -0.000000,  0.000000 )    22.73849650

     10    -0.888E-13     0.0000005409       22.7384965048       0.08  <-- CONV
        O_D=      0.0000000 O_OD=      2.0213905 O_TOT=     22.7384965 <-- SPRD
 Delta: O_D= -0.2176068E-20 O_OD= -0.8880880E-13 O_TOT= -0.8880880E-13 <-- DLTA
 ------------------------------------------------------------------------------

 Writing checkpoint file silicon.chk... done

 Cycle:     20
  WF centre and spread    1  ( -1.275000,  1.275000, -1.275000 )     5.68462413
  WF centre and spread    2  ( -1.275000, -1.275000,  1.275000 )     5.68462413
  WF centre and spread    3  (  1.275000,  1.275000,  1.275000 )     5.68462413
  WF centre and spread    4  (  1.275000, -1.275000, -1.275000 )     5.68462413
  Sum of centres and spreads ( -0.000000, -0.000000,  0.000000 )    22.73849650

     20    -0.317E-14     0.0000001929       22.7384965048       0.13  <-- CONV
        O_D=      0.0000000 O_OD=      2.0213905 O_TOT=     22.7384965 <-- SPRD
 Delta: O_D=  0.7939787E-23 O_OD= -0.3171743E-14 O_TOT= -0.3171743E-14 <-- DLTA
 ------------------------------------------------------------------------------

 Writing checkpoint file silicon.chk... done

 Cycle:     30
  WF centre and spread    1  ( -1.275000,  1.275000, -1.275000 )     5.68462413
  WF centre and spread    2  ( -1.275000, -1.275000,  1.275000 )     5.68462413
  WF centre and spread    3  (  1.275000,  1.275000,  1.275000 )     5.68462413
  WF centre and spread    4  (  1.275000, -1.275000, -1.275000 )     5.68462413
  Sum of centres and spreads ( -0.000000, -0.000000,  0.000000 )    22.73849650

     30     0.952E-14     0.0000000854       22.7384965048       0.19  <-- CONV
        O_D=      0.0000000 O_OD=      2.0213905 O_TOT=     22.7384965 <-- SPRD
 Delta: O_D=  0.1071264E-23 O_OD=  0.1110110E-13 O_TOT=  0.9515228E-14 <-- DLTA
 ------------------------------------------------------------------------------

 Writing checkpoint file silicon.chk... done

 Cycle:     40
  WF centre and spread    1  ( -1.275000,  1.275000, -1.275000 )     5.68462413
  WF centre and spread    2  ( -1.275000, -1.275000,  1.275000 )     5.68462413
  WF centre and spread    3  (  1.275000,  1.275000,  1.275000 )     5.68462413
  WF centre and spread    4  (  1.275000, -1.275000, -1.275000 )     5.68462413
  Sum of centres and spreads ( -0.000000, -0.000000,  0.000000 )    22.73849650

     40     0.190E-13     0.0000000522       22.7384965048       0.25  <-- CONV
        O_D=      0.0000000 O_OD=      2.0213905 O_TOT=     22.7384965 <-- SPRD
 Delta: O_D=  0.1049779E-24 O_OD=  0.1903046E-13 O_TOT=  0.1903046E-13 <-- DLTA
 ------------------------------------------------------------------------------

 Writing checkpoint file silicon.chk... done

 Cycle:     50
  WF centre and spread    1  ( -1.275000,  1.275000, -1.275000 )     5.68462413
  WF centre and spread    2  ( -1.275000, -1.275000,  1.275000 )     5.68462413
  WF centre and spread    3  (  1.275000,  1.275000,  1.275000 )     5.68462413
  WF centre and spread    4  (  1.275000, -1.275000, -1.275000 )     5.68462413
  Sum of centres and spreads ( -0.000000, -0.000000,  0.000000 )    22.73849650

     50     0.000E+00     0.0000000318       22.7384965048       0.31  <-- CONV
        O_D=      0.0000000 O_OD=      2.0213905 O_TOT=     22.7384965 <-- SPRD
 Delta: O_D=  0.9221965E-23 O_OD= -0.3964678E-15 O_TOT=  0.0000000E+00 <-- DLTA
 ------------------------------------------------------------------------------

 Writing checkpoint file silicon.chk... done

 Cycle:     60
  WF centre and spread    1  ( -1.275000,  1.275000, -1.275000 )     5.68462413
  WF centre and spread    2  ( -1.275000, -1.275000,  1.275000 )     5.68462413
  WF centre and spread    3  (  1.275000,  1.275000,  1.275000 )     5.68462413
  WF centre and spread    4  (  1.275000, -1.275000, -1.275000 )     5.68462413
  Sum of centres and spreads ( -0.000000, -0.000000,  0.000000 )    22.73849650

     60    -0.317E-14     0.0000000234       22.7384965048       0.37  <-- CONV
        O_D=      0.0000000 O_OD=      2.0213905 O_TOT=     22.7384965 <-- SPRD
 Delta: O_D=  0.4672072E-23 O_OD= -0.3568211E-14 O_TOT= -0.3171743E-14 <-- DLTA
 ------------------------------------------------------------------------------

 Writing checkpoint file silicon.chk... done

 Cycle:     70
  WF centre and spread    1  ( -1.275000,  1.275000, -1.275000 )     5.68462413
  WF centre and spread    2  ( -1.275000, -1.275000,  1.275000 )     5.68462413
  WF centre and spread    3  (  1.275000,  1.275000,  1.275000 )     5.68462413
  WF centre and spread    4  (  1.275000, -1.275000, -1.275000 )     5.68462413
  Sum of centres and spreads ( -0.000000, -0.000000,  0.000000 )    22.73849650

     70     0.317E-14     0.0000000188       22.7384965048       0.42  <-- CONV
        O_D=      0.0000000 O_OD=      2.0213905 O_TOT=     22.7384965 <-- SPRD
 Delta: O_D=  0.4458410E-23 O_OD=  0.1585871E-14 O_TOT=  0.3171743E-14 <-- DLTA
 ------------------------------------------------------------------------------

 Writing checkpoint file silicon.chk... done

 Cycle:     80
  WF centre and spread    1  ( -1.275000,  1.275000, -1.275000 )     5.68462413
  WF centre and spread    2  ( -1.275000, -1.275000,  1.275000 )     5.68462413
  WF centre and spread    3  (  1.275000,  1.275000,  1.275000 )     5.68462413
  WF centre and spread    4  (  1.275000, -1.275000, -1.275000 )     5.68462413
  Sum of centres and spreads ( -0.000000, -0.000000,  0.000000 )    22.73849650

     80    -0.634E-14     0.0000000150       22.7384965048       0.47  <-- CONV
        O_D=      0.0000000 O_OD=      2.0213905 O_TOT=     22.7384965 <-- SPRD
 Delta: O_D=  0.4369919E-23 O_OD= -0.7136421E-14 O_TOT= -0.6343485E-14 <-- DLTA
 ------------------------------------------------------------------------------

 Writing checkpoint file silicon.chk... done

 Cycle:     90
  WF centre and spread    1  ( -1.275000,  1.275000, -1.275000 )     5.68462413
  WF centre and spread    2  ( -1.275000, -1.275000,  1.275000 )     5.68462413
  WF centre and spread    3  (  1.275000,  1.275000,  1.275000 )     5.68462413
  WF centre and spread    4  (  1.275000, -1.275000, -1.275000 )     5.68462413
  Sum of centres and spreads ( -0.000000, -0.000000,  0.000000 )    22.73849650

     90     0.000E+00     0.0000000134       22.7384965048       0.55  <-- CONV
        O_D=      0.0000000 O_OD=      2.0213905 O_TOT=     22.7384965 <-- SPRD
 Delta: O_D=  0.4402536E-23 O_OD= -0.1585871E-14 O_TOT=  0.0000000E+00 <-- DLTA
 ------------------------------------------------------------------------------

 Writing checkpoint file silicon.chk... done

 Cycle:    100
  WF centre and spread    1  ( -1.275000,  1.275000, -1.275000 )     5.68462413
  WF centre and spread    2  ( -1.275000, -1.275000,  1.275000 )     5.68462413
  WF centre and spread    3  (  1.275000,  1.275000,  1.275000 )     5.68462413
  WF centre and spread    4  (  1.275000, -1.275000, -1.275000 )     5.68462413
  Sum of centres and spreads ( -0.000000, -0.000000,  0.000000 )    22.73849650

    100    -0.317E-14     0.0000000114       22.7384965048       0.61  <-- CONV
        O_D=      0.0000000 O_OD=      2.0213905 O_TOT=     22.7384965 <-- SPRD
 Delta: O_D=  0.4227984E-23 O_OD= -0.4757614E-14 O_TOT= -0.3171743E-14 <-- DLTA
 ------------------------------------------------------------------------------

 Writing checkpoint file silicon.chk... done

 Final State
  WF centre and spread    1  ( -1.275000,  1.275000, -1.275000 )     5.68462413
  WF centre and spread    2  ( -1.275000, -1.275000,  1.275000 )     5.68462413
  WF centre and spread    3  (  1.275000,  1.275000,  1.275000 )     5.68462413
  WF centre and spread    4  (  1.275000, -1.275000, -1.275000 )     5.68462413
  Sum of centres and spreads ( -0.000000, -0.000000,  0.000000 )    22.73849650

        Spreads (Bohr^2)       Omega I      =    20.717105998
        ================       Omega D      =     0.000000000
                               Omega OD     =     2.021390507
   Final Spread (Bohr^2)       Omega Total  =    22.738496505
 ------------------------------------------------------------------------------
 Time for wannierise            2.371 (sec)

 Writing checkpoint file silicon.chk... done

 Time for plotting              0.000 (sec)
 Total Execution Time           3.301 (sec)

 *===========================================================================*
 |                             TIMING INFORMATION                            |
 *===========================================================================*
 |    Tag                                                Ncalls      Time (s)|
 |---------------------------------------------------------------------------|
 |kmesh: get                                        :         1         0.355|
 |overlap: allocate                                 :         1         0.000|
 |overlap: read                                     :         1         0.464|
 |dis: main                                         :         1         0.045|
 |wann: main                                        :         1         2.371|
 |plot: main                                        :         1         0.000|
 *---------------------------------------------------------------------------*

 All done: wannier90 exiting
