
     Program PW2WANNIER v.6.2 (svn rev. 13949:13950) starts on  3Jan2018 at 12: 6:58 

     This program is part of the open-source Quantum ESPRESSO suite
     for quantum simulation of materials; please cite
         "P. Giannozzi et al., J. Phys.:Condens. Matter 21 395502 (2009);
         "P. Giannozzi et al., J. Phys.:Condens. Matter 29 465901 (2017);
          URL http://www.quantum-espresso.org", 
     in publications or presentations arising from this work. More details at
     http://www.quantum-espresso.org/quote

     Parallel version (MPI), running on     1 processors

     MPI processes distributed on     1 nodes
 
  Reading nscf_save data

     Reading data from directory:
     ./Te.save/

     IMPORTANT: XC functional enforced from input :
     Exchange-correlation      = PBE ( 1  4  3  4 0 0)
     Any further DFT definition will be discarded
     Please, verify this is what you really want

 
     G-vector sticks info
     --------------------
     sticks:   dense  smooth     PW     G-vecs:    dense   smooth      PW
     Sum         379     379    151                 8307     8307    2017
 

     Check: negative/imaginary core charge=   -0.000064    0.000000
 
  Spin CASE ( default = unpolarized )
 
  Wannier mode is: standalone     
 
  -----------------
  *** Reading nnkp 
  -----------------
 
  Checking info from wannier.nnkp file
 
  - Real lattice is ok
  - Reciprocal lattice is ok
  - K-points are ok
  - Number of wannier functions is ok (  9)
  - All guiding functions are given 
 
 Projections:
    0.137020    0.237326    0.000000  1  1  1    1.000000
    0.137020    0.237326    0.000000  1  2  1    1.000000
    0.137020    0.237326    0.000000  1  3  1    1.000000
   -0.274040    0.000000    0.445596  1  1  1    1.000000
   -0.274040    0.000000    0.445596  1  2  1    1.000000
   -0.274040    0.000000    0.445596  1  3  1    1.000000
    0.137020   -0.237326    0.891204  1  1  1    1.000000
    0.137020   -0.237326    0.891204  1  2  1    1.000000
    0.137020   -0.237326    0.891204  1  3  1    1.000000
 
  Reading data about k-point neighbours 
 
  All neighbours are found 
 
  Opening pp-files 
 
 
  ---------------
  *** Compute  A 
  ---------------
 
  AMN: iknum =       36
       1       2       3       4       5       6       7       8       9      10
      11      12      13      14      15      16      17      18      19      20
      21      22      23      24      25      26      27      28      29      30
      31      32      33      34      35      36

  AMN calculated
 
  ---------------
  *** Compute  M 
  ---------------
 
  MMN: iknum =       36
       1       2       3       4       5       6       7       8       9      10
      11      12      13      14      15      16      17      18      19      20
      21      22      23      24      25      26      27      28      29      30
      31      32      33      34      35      36

  MMN calculated
 
  ----------------
  *** Compute Orb 
  ----------------
 
 
  -----------------
  *** Compute  uHu 
  -----------------
 
 iknum =       36
       1
       2
       3
       4
       5
       6
       7
       8
       9
      10
      11
      12
      13
      14
      15
      16
      17
      18
      19
      20
      21
      22
      23
      24
      25
      26
      27
      28
      29
      30
      31
      32
      33
      34
      35
      36
 
  uHu calculated
 
  ----------------
  *** Write bands 
  ----------------
 
 
  -----------------------------
  *** Plot info is not printed 
  -----------------------------
 
  -----------------------------
  *** Parity info is not printed 
  -----------------------------
 
  ------------
  *** Stop pp 
  ------------
 
 
     init_pw2wan  :      0.24s CPU      0.47s WALL (       1 calls)
     compute_amn  :     25.32s CPU     26.41s WALL (       1 calls)
     compute_mmn  :      1.69s CPU      1.82s WALL (       1 calls)
 
     PW2WANNIER   :    25.56s CPU        26.90s WALL

 
   This run was terminated on:  12: 7:25   3Jan2018            

=------------------------------------------------------------------------------=
   JOB DONE.
=------------------------------------------------------------------------------=
 
