
             +---------------------------------------------------+
             |                                                   |
             |                   WANNIER90                       |
             |                                                   |
             +---------------------------------------------------+
             |                                                   |
             |        Welcome to the Maximally-Localized         |
             |        Generalized Wannier Functions code         |
             |            http://www.wannier.org                 |
             |                                                   |
             |  Wannier90 v2.x Authors:                          |
             |    Arash A. Mostofi  (Imperial College London)    |
             |    Giovanni Pizzi    (EPFL)                       |
             |    Ivo Souza         (Universidad del Pais Vasco) |
             |    Jonathan R. Yates (University of Oxford)       |
             |                                                   |
             |  Wannier90 Contributors:                          |
             |    Young-Su Lee       (KIST, S. Korea)            |
             |    Matthew Shelley    (Imperial College London)   |
             |    Nicolas Poilvert   (Penn State University)     |
             |    Raffaello Bianco   (Paris 6 and CNRS)          |
             |    Gabriele Sclauzero (ETH Zurich)                |
             |    David Strubbe (MIT, USA)                       |
             |    Rei Sakuma (Lund University, Sweden)           |
             |    Yusuke Nomura (U. Tokyo, Japan)                |
             |    Takashi Koretsune (Riken, Japan)               |
             |    Yoshiro Nohara (ASMS Co. Ltd., Japan)          |
             |    Ryotaro Arita (Riken, Japan)                   |
             |    Lorenzo Paulatto (UPMC Paris)                  |
             |    Florian Thole (ETH Zurich)                     |
             |    Pablo Garcia Fernandez (Unican, Spain)         |
             |    Dominik Gresch (ETH Zurich)                    |
             |    Samuel Ponce (University of Oxford)            |
             |    Marco Gibertini (EPFL)                         |
             |    Christian Stieger (ETHZ, CH)                   |
             |    Stepan Tsirkin (Universidad del Pais Vasco)    |
             |                                                   |
             |  Wannier77 Authors:                               |
             |    Nicola Marzari    (EPFL)                       |
             |    Ivo Souza         (Universidad del Pais Vasco) |
             |    David Vanderbilt  (Rutgers University)         |
             |                                                   |
             |  Please cite                                      |
             |                                                   |
             |  [ref] "An updated version of Wannier90:          |
             |        A Tool for Obtaining Maximally Localised   |
             |        Wannier Functions", A. A. Mostofi,         |
             |        J. R. Yates, G. Pizzi, Y. S. Lee,          |
             |        I. Souza, D. Vanderbilt and N. Marzari,    |
             |        Comput. Phys. Commun. 185, 2309 (2014)     |
             |        http://dx.doi.org/10.1016/j.cpc.2014.05.003|
             |                                                   |
             |  in any publications arising from the use of      |
             |  this code. For the method please cite            |
             |                                                   |
             |  [ref] "Maximally Localized Generalised Wannier   |
             |         Functions for Composite Energy Bands"     |
             |         N. Marzari and D. Vanderbilt              |
             |         Phys. Rev. B 56 12847 (1997)              |
             |                                                   |
             |  [ref] "Maximally Localized Wannier Functions     |
             |         for Entangled Energy Bands"               |
             |         I. Souza, N. Marzari and D. Vanderbilt    |
             |         Phys. Rev. B 65 035109 (2001)             |
             |                                                   |
             |                                                   |
             | Copyright (c) 1996-2017                           |
             |        Arash A. Mostofi, Jonathan R. Yates,       |
             |        Young-Su Lee, Giovanni Pizzi, Ivo Souza,   |
             |        David Vanderbilt and Nicola Marzari        |
             |                                                   |
             |      Release: 2.1.0+git   13th January 2017       |
             |                                                   |
             | This program is free software; you can            |
             | redistribute it and/or modify it under the terms  |
             | of the GNU General Public License as published by |
             | the Free Software Foundation; either version 2 of |
             | the License, or (at your option) any later version|
             |                                                   |
             | This program is distributed in the hope that it   |
             | will be useful, but WITHOUT ANY WARRANTY; without |
             | even the implied warranty of MERCHANTABILITY or   |
             | FITNESS FOR A PARTICULAR PURPOSE. See the GNU     |
             | General Public License for more details.          |
             |                                                   |
             | You should have received a copy of the GNU General|
             | Public License along with this program; if not,   |
             | write to the Free Software Foundation, Inc.,      |
             | 675 Mass Ave, Cambridge, MA 02139, USA.           |
             |                                                   |
             +---------------------------------------------------+
             |    Execution started on 14Oct2018 at 10:46:37     |
             +---------------------------------------------------+
 
 ******************************************************************************
 * -> Using CODATA 2006 constant values                                       *
 *    (http://physics.nist.gov/cuu/Constants/index.html)                      *
 * -> Using Bohr value from CODATA                                            *
 ******************************************************************************
 

 Running in serial (with serial executable)

                                    ------
                                    SYSTEM
                                    ------

                            Lattice Vectors (Bohr)
                    a_1    -5.100000   0.000000   5.100000
                    a_2     0.000000   5.100000   5.100000
                    a_3    -5.100000   5.100000   0.000000

                   Unit Cell Volume:     265.30200  (Bohr^3)

                      Reciprocal-Space Vectors (Bohr^-1)
                    b_1    -0.615999  -0.615999   0.615999
                    b_2     0.615999   0.615999   0.615999
                    b_3    -0.615999   0.615999  -0.615999
  
 *----------------------------------------------------------------------------*
 |   Site       Fractional Coordinate          Cartesian Coordinate (Bohr)    |
 +----------------------------------------------------------------------------+
 | Si   1  -0.25000   0.75000  -0.25000   |    2.55000   2.55000   2.55000    |
 | Si   2   0.00000   0.00000   0.00000   |    0.00000   0.00000   0.00000    |
 *----------------------------------------------------------------------------*
                                -----------
                                PROJECTIONS
                                -----------
  
 +----------------------------------------------------------------------------+
 |     Frac. Coord.   l mr  r        z-axis               x-axis          Z/a |
 +----------------------------------------------------------------------------+
 | -0.12 -0.12  0.38  0  1  1  0.000  0.000  1.000  1.000  0.000  0.000   1.0 |
 |  0.38 -0.12 -0.12  0  1  1  0.000  0.000  1.000  1.000  0.000  0.000   1.0 |
 | -0.12  0.38 -0.12  0  1  1  0.000  0.000  1.000  1.000  0.000  0.000   1.0 |
 | -0.12 -0.12 -0.12  0  1  1  0.000  0.000  1.000  1.000  0.000  0.000   1.0 |
 | -0.25  0.75 -0.25 -3  1  1  0.000  0.000  1.000  1.000  0.000  0.000   1.0 |
 | -0.25  0.75 -0.25 -3  2  1  0.000  0.000  1.000  1.000  0.000  0.000   1.0 |
 | -0.25  0.75 -0.25 -3  3  1  0.000  0.000  1.000  1.000  0.000  0.000   1.0 |
 | -0.25  0.75 -0.25 -3  4  1  0.000  0.000  1.000  1.000  0.000  0.000   1.0 |
 |  0.00  0.00  0.00 -3  1  1  0.000  0.000  1.000  1.000  0.000  0.000   1.0 |
 |  0.00  0.00  0.00 -3  2  1  0.000  0.000  1.000  1.000  0.000  0.000   1.0 |
 |  0.00  0.00  0.00 -3  3  1  0.000  0.000  1.000  1.000  0.000  0.000   1.0 |
 |  0.00  0.00  0.00 -3  4  1  0.000  0.000  1.000  1.000  0.000  0.000   1.0 |
 +----------------------------------------------------------------------------+
  
                              --------------------
                              SELECTED PROJECTIONS
                              --------------------
  
 +----------------------------------------------------------------------------+
 |     Frac. Coord.   l mr  r        z-axis               x-axis          Z/a |
 +----------------------------------------------------------------------------+
 |  0.00  0.00  0.00 -3  1  1  0.000  0.000  1.000  1.000  0.000  0.000   1.0 |
 |  0.00  0.00  0.00 -3  2  1  0.000  0.000  1.000  1.000  0.000  0.000   1.0 |
 |  0.00  0.00  0.00 -3  3  1  0.000  0.000  1.000  1.000  0.000  0.000   1.0 |
 |  0.00  0.00  0.00 -3  4  1  0.000  0.000  1.000  1.000  0.000  0.000   1.0 |
 +----------------------------------------------------------------------------+
  
                                ------------
                                K-POINT GRID
                                ------------
  
             Grid size =  4 x  4 x  4      Total points =   64
  
 *----------------------------------------------------------------------------*
 | k-point      Fractional Coordinate        Cartesian Coordinate (Bohr^-1)   |
 +----------------------------------------------------------------------------+
 |     1    0.00000   0.00000   0.00000   |    0.00000   0.00000   0.00000    |
 |     2    0.00000   0.00000   0.25000   |   -0.15400   0.15400  -0.15400    |
 |     3    0.00000   0.00000   0.50000   |   -0.30800   0.30800  -0.30800    |
 |     4    0.00000   0.00000   0.75000   |   -0.46200   0.46200  -0.46200    |
 |     5    0.00000   0.25000   0.00000   |    0.15400   0.15400   0.15400    |
 |     6    0.00000   0.25000   0.25000   |    0.00000   0.30800   0.00000    |
 |     7    0.00000   0.25000   0.50000   |   -0.15400   0.46200  -0.15400    |
 |     8    0.00000   0.25000   0.75000   |   -0.30800   0.61600  -0.30800    |
 |     9    0.00000   0.50000   0.00000   |    0.30800   0.30800   0.30800    |
 |    10    0.00000   0.50000   0.25000   |    0.15400   0.46200   0.15400    |
 |    11    0.00000   0.50000   0.50000   |    0.00000   0.61600   0.00000    |
 |    12    0.00000   0.50000   0.75000   |   -0.15400   0.77000  -0.15400    |
 |    13    0.00000   0.75000   0.00000   |    0.46200   0.46200   0.46200    |
 |    14    0.00000   0.75000   0.25000   |    0.30800   0.61600   0.30800    |
 |    15    0.00000   0.75000   0.50000   |    0.15400   0.77000   0.15400    |
 |    16    0.00000   0.75000   0.75000   |    0.00000   0.92400   0.00000    |
 |    17    0.25000   0.00000   0.00000   |   -0.15400  -0.15400   0.15400    |
 |    18    0.25000   0.00000   0.25000   |   -0.30800   0.00000   0.00000    |
 |    19    0.25000   0.00000   0.50000   |   -0.46200   0.15400  -0.15400    |
 |    20    0.25000   0.00000   0.75000   |   -0.61600   0.30800  -0.30800    |
 |    21    0.25000   0.25000   0.00000   |    0.00000   0.00000   0.30800    |
 |    22    0.25000   0.25000   0.25000   |   -0.15400   0.15400   0.15400    |
 |    23    0.25000   0.25000   0.50000   |   -0.30800   0.30800   0.00000    |
 |    24    0.25000   0.25000   0.75000   |   -0.46200   0.46200  -0.15400    |
 |    25    0.25000   0.50000   0.00000   |    0.15400   0.15400   0.46200    |
 |    26    0.25000   0.50000   0.25000   |    0.00000   0.30800   0.30800    |
 |    27    0.25000   0.50000   0.50000   |   -0.15400   0.46200   0.15400    |
 |    28    0.25000   0.50000   0.75000   |   -0.30800   0.61600   0.00000    |
 |    29    0.25000   0.75000   0.00000   |    0.30800   0.30800   0.61600    |
 |    30    0.25000   0.75000   0.25000   |    0.15400   0.46200   0.46200    |
 |    31    0.25000   0.75000   0.50000   |   -0.00000   0.61600   0.30800    |
 |    32    0.25000   0.75000   0.75000   |   -0.15400   0.77000   0.15400    |
 |    33    0.50000   0.00000   0.00000   |   -0.30800  -0.30800   0.30800    |
 |    34    0.50000   0.00000   0.25000   |   -0.46200  -0.15400   0.15400    |
 |    35    0.50000   0.00000   0.50000   |   -0.61600   0.00000   0.00000    |
 |    36    0.50000   0.00000   0.75000   |   -0.77000   0.15400  -0.15400    |
 |    37    0.50000   0.25000   0.00000   |   -0.15400  -0.15400   0.46200    |
 |    38    0.50000   0.25000   0.25000   |   -0.30800   0.00000   0.30800    |
 |    39    0.50000   0.25000   0.50000   |   -0.46200   0.15400   0.15400    |
 |    40    0.50000   0.25000   0.75000   |   -0.61600   0.30800   0.00000    |
 |    41    0.50000   0.50000   0.00000   |    0.00000   0.00000   0.61600    |
 |    42    0.50000   0.50000   0.25000   |   -0.15400   0.15400   0.46200    |
 |    43    0.50000   0.50000   0.50000   |   -0.30800   0.30800   0.30800    |
 |    44    0.50000   0.50000   0.75000   |   -0.46200   0.46200   0.15400    |
 |    45    0.50000   0.75000   0.00000   |    0.15400   0.15400   0.77000    |
 |    46    0.50000   0.75000   0.25000   |   -0.00000   0.30800   0.61600    |
 |    47    0.50000   0.75000   0.50000   |   -0.15400   0.46200   0.46200    |
 |    48    0.50000   0.75000   0.75000   |   -0.30800   0.61600   0.30800    |
 |    49    0.75000   0.00000   0.00000   |   -0.46200  -0.46200   0.46200    |
 |    50    0.75000   0.00000   0.25000   |   -0.61600  -0.30800   0.30800    |
 |    51    0.75000   0.00000   0.50000   |   -0.77000  -0.15400   0.15400    |
 |    52    0.75000   0.00000   0.75000   |   -0.92400   0.00000   0.00000    |
 |    53    0.75000   0.25000   0.00000   |   -0.30800  -0.30800   0.61600    |
 |    54    0.75000   0.25000   0.25000   |   -0.46200  -0.15400   0.46200    |
 |    55    0.75000   0.25000   0.50000   |   -0.61600   0.00000   0.30800    |
 |    56    0.75000   0.25000   0.75000   |   -0.77000   0.15400   0.15400    |
 |    57    0.75000   0.50000   0.00000   |   -0.15400  -0.15400   0.77000    |
 |    58    0.75000   0.50000   0.25000   |   -0.30800   0.00000   0.61600    |
 |    59    0.75000   0.50000   0.50000   |   -0.46200   0.15400   0.46200    |
 |    60    0.75000   0.50000   0.75000   |   -0.61600   0.30800   0.30800    |
 |    61    0.75000   0.75000   0.00000   |    0.00000   0.00000   0.92400    |
 |    62    0.75000   0.75000   0.25000   |   -0.15400   0.15400   0.77000    |
 |    63    0.75000   0.75000   0.50000   |   -0.30800   0.30800   0.61600    |
 |    64    0.75000   0.75000   0.75000   |   -0.46200   0.46200   0.46200    |
 *----------------------------------------------------------------------------*
  
  
 *---------------------------------- MAIN ------------------------------------*
 |  Number of Wannier Functions               :                 8             |
 |  Number of Objective Wannier Functions     :                 8             |
 |  Number of input Bloch states              :                12             |
 |  Output verbosity (1=low, 5=high)          :                 2             |
 |  Timing Level (1=low, 5=high)              :                 1             |
 |  Optimisation (0=memory, 3=speed)          :                 3             |
 |  Length Unit                               :              Bohr             |
 |  Post-processing setup (write *.nnkp)      :                 F             |
 |  Using Gamma-only branch of algorithms     :                 F             |
 *----------------------------------------------------------------------------*
 *------------------------------- WANNIERISE ---------------------------------*
 |  Total number of iterations                :               100             |
 |  Number of CG steps before reset           :                 5             |
 |  Trial step length for line search         :             2.000             |
 |  Convergence tolerence                     :         0.100E-09             |
 |  Convergence window                        :                -1             |
 |  Iterations between writing output         :                10             |
 |  Iterations between backing up to disk     :                10             |
 |  Write r^2_nm to file                      :                 F             |
 |  Write xyz WF centres to file              :                 F             |
 |  Write on-site energies <0n|H|0n> to file  :                 F             |
 |  Use guiding centre to control phases      :                 F             |
 |  Use phases for initial projections        :                 F             |
 *----------------------------------------------------------------------------*
 *------------------------------- DISENTANGLE --------------------------------*
 |  Using band disentanglement                :                 T             |
 |  Total number of iterations                :               100             |
 |  Mixing ratio                              :             0.500             |
 |  Convergence tolerence                     :         1.000E-10             |
 |  Convergence window                        :                 3             |
 *----------------------------------------------------------------------------*
 Time to read parameters        0.067 (sec)

 *---------------------------------- K-MESH ----------------------------------*
 +----------------------------------------------------------------------------+
 |                    Distance to Nearest-Neighbour Shells                    |
 |                    ------------------------------------                    |
 |          Shell             Distance (Bohr^-1)         Multiplicity         |
 |          -----             ------------------         ------------         |
 |             1                   0.266735                      8            |
 |             2                   0.307999                      6            |
 |             3                   0.435577                     12            |
 |             4                   0.510759                     24            |
 |             5                   0.533470                      8            |
 |             6                   0.615999                      6            |
 |             7                   0.671269                     24            |
 |             8                   0.688707                     24            |
 |             9                   0.754441                     24            |
 |            10                   0.800206                     32            |
 |            11                   0.871154                     12            |
 |            12                   0.911074                     48            |
 +----------------------------------------------------------------------------+
 | The b-vectors are chosen automatically                                     |
 | Shell:  1 w_b    5.2707280     (Bohr^2)                                    |
 | The following shells are used:   1                                         |
 +----------------------------------------------------------------------------+
 |                        Shell   # Nearest-Neighbours                        |
 |                        -----   --------------------                        |
 |                          1               8                                 |
 +----------------------------------------------------------------------------+
 | Completeness relation is fully satisfied [Eq. (B1), PRB 56, 12847 (1997)]  |
 +----------------------------------------------------------------------------+
 |                 b_k Vectors (Bohr^-1) and Weights (Bohr^2)                 |
 |                 ------------------------------------------                 |
 |            No.         b_k(x)      b_k(y)      b_k(z)        w_b           |
 |            ---        --------------------------------     --------        |
 |             1        -0.154000    0.154000   -0.154000     5.270728        |
 |             2         0.154000    0.154000    0.154000     5.270728        |
 |             3        -0.154000   -0.154000    0.154000     5.270728        |
 |             4        -0.154000    0.154000    0.154000     5.270728        |
 |             5         0.154000   -0.154000    0.154000     5.270728        |
 |             6        -0.154000   -0.154000   -0.154000     5.270728        |
 |             7         0.154000    0.154000   -0.154000     5.270728        |
 |             8         0.154000   -0.154000   -0.154000     5.270728        |
 +----------------------------------------------------------------------------+
 |                           b_k Directions (Bohr^-1)                         |
 |                           ------------------------                         |
 |            No.           x           y           z                         |
 |            ---        --------------------------------                     |
 |             1        -0.154000    0.154000   -0.154000                     |
 |             2         0.154000    0.154000    0.154000                     |
 |             3        -0.154000   -0.154000    0.154000                     |
 |             4        -0.154000    0.154000    0.154000                     |
 +----------------------------------------------------------------------------+
  
 Time to get kmesh              0.354 (sec)
 *============================================================================*
 |                              MEMORY ESTIMATE                               |
 |         Maximum RAM allocated during each phase of the calculation         |
 *============================================================================*
 |                        Disentanglement            1.92 Mb                  |
 |                            Wannierise:            1.54 Mb                  |
 |                                                                            |
 |   N.B. by setting optimisation=0 memory usage will be reduced to:          |
 |                        Disentanglement            1.71 Mb                  |
 |                            Wannierise:            1.04 Mb                  |
 |   However, this will result in more i/o and slow down the calculation      |
 |                          plot_wannier:            1.54 Mb                  |
 *----------------------------------------------------------------------------*
  
 Starting a new Wannier90 calculation ...


 Reading overlaps from silicon.mmn    :  Created on 14Oct2018 at 10:41:12

 Reading projections from silicon.amn :  Created on 14Oct2018 at 10:40:46

 Time to read overlaps          0.456 (sec)

 *------------------------------- DISENTANGLE --------------------------------*
 +----------------------------------------------------------------------------+
 |                              Energy  Windows                               |
 |                              ---------------                               |
 |                   Outer:   -5.69829  to   17.00000  (eV)                   |
 |                   Inner:   -5.69829  to    6.50000  (eV)                   |
 +----------------------------------------------------------------------------+
 |                        K-points with Frozen States                         |
 |                        ---------------------------                         |
 |     1     2     3     4     5     6     7     8     9    10    11    12    |
 |    13    14    15    16    17    18    19    20    21    22    23    24    |
 |    25    26    27    28    29    30    31    32    33    34    35    36    |
 |    37    38    39    40    41    42    43    44    45    46    47    48    |
 |    49    50    51    52    53    54    55    56    57    58    59    60    |
 |    61    62    63    64                                                    |
 +----------------------------------------------------------------------------+
   Number of target bands to extract:    8
 +----------------------------------------------------------------------------+
 |                                  Windows                                   |
 |                                  -------                                   |
 |               K-point      Ndimwin     Ndimfroz    Nfirstwin               |
 |               ----------------------------------------------               |
 |                   1           11            4           1                  |
 |                   2           11            4           1                  |
 |                   3           10            4           1                  |
 |                   4           11            4           1                  |
 |                   5           11            4           1                  |
 |                   6           10            4           1                  |
 |                   7           10            4           1                  |
 |                   8           10            4           1                  |
 |                   9           10            4           1                  |
 |                  10           10            4           1                  |
 |                  11            8            4           1                  |
 |                  12           10            4           1                  |
 |                  13           11            4           1                  |
 |                  14           10            4           1                  |
 |                  15           10            4           1                  |
 |                  16           10            4           1                  |
 |                  17           11            4           1                  |
 |                  18           10            4           1                  |
 |                  19           10            4           1                  |
 |                  20           10            4           1                  |
 |                  21           10            4           1                  |
 |                  22           11            4           1                  |
 |                  23           10            4           1                  |
 |                  24           10            4           1                  |
 |                  25           10            4           1                  |
 |                  26           10            4           1                  |
 |                  27           10            4           1                  |
 |                  28            8            4           1                  |
 |                  29           10            4           1                  |
 |                  30           10            4           1                  |
 |                  31            8            4           1                  |
 |                  32           10            4           1                  |
 |                  33           10            4           1                  |
 |                  34           10            4           1                  |
 |                  35            8            4           1                  |
 |                  36           10            4           1                  |
 |                  37           10            4           1                  |
 |                  38           10            4           1                  |
 |                  39           10            4           1                  |
 |                  40            8            4           1                  |
 |                  41            8            4           1                  |
 |                  42           10            4           1                  |
 |                  43           10            4           1                  |
 |                  44           10            4           1                  |
 |                  45           10            4           1                  |
 |                  46            8            4           1                  |
 |                  47           10            4           1                  |
 |                  48           10            4           1                  |
 |                  49           11            4           1                  |
 |                  50           10            4           1                  |
 |                  51           10            4           1                  |
 |                  52           10            4           1                  |
 |                  53           10            4           1                  |
 |                  54           10            4           1                  |
 |                  55            8            4           1                  |
 |                  56           10            4           1                  |
 |                  57           10            4           1                  |
 |                  58            8            4           1                  |
 |                  59           10            4           1                  |
 |                  60           10            4           1                  |
 |                  61           10            4           1                  |
 |                  62           10            4           1                  |
 |                  63           10            4           1                  |
 |                  64           11            4           1                  |
 +----------------------------------------------------------------------------+

                   Unitarised projection of Wannier functions                  
                   ------------------------------------------                  
   A_mn = <psi_m|g_n> --> S = A.A^+ --> U = S^-1/2.A
   In dis_project... done
   Using an inner window (linner = T)
   In dis_proj_froz... done

                   Extraction of optimally-connected subspace                  
                   ------------------------------------------                  
 +---------------------------------------------------------------------+<-- DIS
 |  Iter     Omega_I(i-1)      Omega_I(i)      Delta (frac.)    Time   |<-- DIS
 +---------------------------------------------------------------------+<-- DIS
       1      46.33958718      44.44656678       4.259E-02      0.00    <-- DIS
       2      44.98971520      44.23019880       1.717E-02      0.01    <-- DIS
       3      44.57277661      44.14609457       9.665E-03      0.02    <-- DIS
       4      44.33207260      44.10457199       5.158E-03      0.03    <-- DIS
       5      44.19839309      44.08232993       2.633E-03      0.04    <-- DIS
       6      44.12574549      44.06993437       1.266E-03      0.05    <-- DIS
       7      44.08694526      44.06281658       5.476E-04      0.06    <-- DIS
       8      44.06662901      44.05862613       1.816E-04      0.07    <-- DIS
       9      44.05629571      44.05610775       4.266E-06      0.08    <-- DIS
      10      44.05129486      44.05456893      -7.432E-05      0.09    <-- DIS
      11      44.04910089      44.05361634      -1.025E-04      0.10    <-- DIS
      12      44.04835064      44.05302070      -1.060E-04      0.11    <-- DIS
      13      44.04831363      44.05264542      -9.833E-05      0.12    <-- DIS
      14      44.04860262      44.05240761      -8.637E-05      0.13    <-- DIS
      15      44.04901603      44.05225629      -7.355E-05      0.14    <-- DIS
      16      44.04945223      44.05215969      -6.146E-05      0.15    <-- DIS
      17      44.04986304      44.05209788      -5.073E-05      0.16    <-- DIS
      18      44.05022845      44.05205827      -4.154E-05      0.17    <-- DIS
      19      44.05054293      44.05203285      -3.382E-05      0.18    <-- DIS
      20      44.05080804      44.05201652      -2.743E-05      0.19    <-- DIS
      21      44.05102852      44.05200603      -2.219E-05      0.20    <-- DIS
      22      44.05121017      44.05199928      -1.791E-05      0.21    <-- DIS
      23      44.05135884      44.05199494      -1.444E-05      0.22    <-- DIS
      24      44.05147994      44.05199215      -1.163E-05      0.23    <-- DIS
      25      44.05157823      44.05199035      -9.355E-06      0.24    <-- DIS
      26      44.05165781      44.05198919      -7.522E-06      0.25    <-- DIS
      27      44.05172211      44.05198844      -6.046E-06      0.27    <-- DIS
      28      44.05177398      44.05198796      -4.858E-06      0.28    <-- DIS
      29      44.05181578      44.05198766      -3.902E-06      0.29    <-- DIS
      30      44.05184943      44.05198746      -3.133E-06      0.30    <-- DIS
      31      44.05187650      44.05198733      -2.516E-06      0.31    <-- DIS
      32      44.05189827      44.05198725      -2.020E-06      0.33    <-- DIS
      33      44.05191577      44.05198719      -1.621E-06      0.34    <-- DIS
      34      44.05192983      44.05198716      -1.301E-06      0.35    <-- DIS
      35      44.05194112      44.05198714      -1.045E-06      0.36    <-- DIS
      36      44.05195019      44.05198712      -8.384E-07      0.37    <-- DIS
      37      44.05195747      44.05198711      -6.729E-07      0.38    <-- DIS
      38      44.05196332      44.05198711      -5.400E-07      0.39    <-- DIS
      39      44.05196801      44.05198710      -4.334E-07      0.40    <-- DIS
      40      44.05197178      44.05198710      -3.478E-07      0.41    <-- DIS
      41      44.05197480      44.05198710      -2.791E-07      0.42    <-- DIS
      42      44.05197723      44.05198710      -2.240E-07      0.43    <-- DIS
      43      44.05197918      44.05198710      -1.798E-07      0.44    <-- DIS
      44      44.05198074      44.05198710      -1.443E-07      0.45    <-- DIS
      45      44.05198200      44.05198710      -1.158E-07      0.47    <-- DIS
      46      44.05198300      44.05198710      -9.292E-08      0.49    <-- DIS
      47      44.05198381      44.05198710      -7.457E-08      0.50    <-- DIS
      48      44.05198446      44.05198710      -5.984E-08      0.51    <-- DIS
      49      44.05198498      44.05198710      -4.802E-08      0.52    <-- DIS
      50      44.05198540      44.05198710      -3.854E-08      0.53    <-- DIS
      51      44.05198573      44.05198710      -3.093E-08      0.54    <-- DIS
      52      44.05198600      44.05198710      -2.482E-08      0.55    <-- DIS
      53      44.05198622      44.05198710      -1.992E-08      0.56    <-- DIS
      54      44.05198639      44.05198710      -1.598E-08      0.57    <-- DIS
      55      44.05198653      44.05198710      -1.283E-08      0.58    <-- DIS
      56      44.05198664      44.05198710      -1.029E-08      0.59    <-- DIS
      57      44.05198673      44.05198710      -8.261E-09      0.60    <-- DIS
      58      44.05198680      44.05198710      -6.630E-09      0.61    <-- DIS
      59      44.05198686      44.05198710      -5.321E-09      0.62    <-- DIS
      60      44.05198691      44.05198710      -4.270E-09      0.63    <-- DIS
      61      44.05198695      44.05198710      -3.427E-09      0.64    <-- DIS
      62      44.05198698      44.05198710      -2.750E-09      0.65    <-- DIS
      63      44.05198700      44.05198710      -2.207E-09      0.66    <-- DIS
      64      44.05198702      44.05198710      -1.771E-09      0.67    <-- DIS
      65      44.05198703      44.05198710      -1.421E-09      0.68    <-- DIS
      66      44.05198705      44.05198710      -1.141E-09      0.69    <-- DIS
      67      44.05198706      44.05198710      -9.153E-10      0.70    <-- DIS
      68      44.05198706      44.05198710      -7.345E-10      0.71    <-- DIS
      69      44.05198707      44.05198710      -5.895E-10      0.72    <-- DIS
      70      44.05198708      44.05198710      -4.731E-10      0.73    <-- DIS
      71      44.05198708      44.05198710      -3.796E-10      0.74    <-- DIS
      72      44.05198708      44.05198710      -3.047E-10      0.75    <-- DIS
      73      44.05198709      44.05198710      -2.445E-10      0.76    <-- DIS
      74      44.05198709      44.05198710      -1.962E-10      0.77    <-- DIS
      75      44.05198709      44.05198710      -1.575E-10      0.78    <-- DIS
      76      44.05198709      44.05198710      -1.264E-10      0.79    <-- DIS
      77      44.05198709      44.05198710      -1.014E-10      0.80    <-- DIS
      78      44.05198709      44.05198710      -8.138E-11      0.81    <-- DIS
      79      44.05198709      44.05198710      -6.531E-11      0.82    <-- DIS
      80      44.05198709      44.05198710      -5.241E-11      0.83    <-- DIS

             <<<      Delta < 1.000E-10  over  3 iterations     >>>
             <<< Disentanglement convergence criteria satisfied >>>

        Final Omega_I    44.05198710 (Bohr^2)

 +----------------------------------------------------------------------------+

 Time to disentangle bands      3.513 (sec)

 Writing checkpoint file silicon.chk... done


 *------------------------------- WANNIERISE ---------------------------------*
 +--------------------------------------------------------------------+<-- CONV
 | Iter  Delta Spread     RMS Gradient      Spread (Bohr^2)     Time  |<-- CONV
 +--------------------------------------------------------------------+<-- CONV

 ------------------------------------------------------------------------------
 Initial State
  WF centre and spread    1  (  3.367924,  3.367924,  3.367924 )     7.52334384
  WF centre and spread    2  (  3.367924,  1.732076,  1.732076 )     7.52334383
  WF centre and spread    3  (  1.732076,  3.367924,  1.732076 )     7.52334385
  WF centre and spread    4  (  1.732076,  1.732076,  3.367924 )     7.52334386
  WF centre and spread    5  (  0.438091,  0.438091,  0.438091 )     8.65287753
  WF centre and spread    6  (  0.438091, -0.438091, -0.438091 )     8.65287754
  WF centre and spread    7  ( -0.438091,  0.438091, -0.438091 )     8.65287755
  WF centre and spread    8  ( -0.438091, -0.438091,  0.438091 )     8.65287756
  Sum of centres and spreads ( 10.200000, 10.200000, 10.200000 )    64.70488555

      0     0.647E+02     0.0000000000       64.7048855489       0.87  <-- CONV
        O_D=      0.5532696 O_OD=     20.0996288 O_TOT=     64.7048855 <-- SPRD
 ------------------------------------------------------------------------------
 Cycle:      1
  WF centre and spread    1  (  3.404275,  3.404275,  3.404275 )     7.28660908
  WF centre and spread    2  (  3.404275,  1.695725,  1.695725 )     7.28660907
  WF centre and spread    3  (  1.695725,  3.404275,  1.695725 )     7.28660910
  WF centre and spread    4  (  1.695725,  1.695725,  3.404275 )     7.28660910
  WF centre and spread    5  (  0.424882,  0.424882,  0.424882 )     8.51986714
  WF centre and spread    6  (  0.424882, -0.424882, -0.424882 )     8.51986716
  WF centre and spread    7  ( -0.424882,  0.424882, -0.424882 )     8.51986717
  WF centre and spread    8  ( -0.424882, -0.424882,  0.424882 )     8.51986717
  Sum of centres and spreads ( 10.200000, 10.200000, 10.200000 )    63.22590501

      1    -0.148E+01     0.9130410942       63.2259050141       0.89  <-- CONV
        O_D=      0.6502329 O_OD=     18.5236850 O_TOT=     63.2259050 <-- SPRD
 Delta: O_D=  0.9696326E-01 O_OD= -0.1575944E+01 O_TOT= -0.1478981E+01 <-- DLTA
 ------------------------------------------------------------------------------
 Cycle:     10
  WF centre and spread    1  (  3.415057,  3.415057,  3.415057 )     7.20475886
  WF centre and spread    2  (  3.415057,  1.684943,  1.684943 )     7.20475886
  WF centre and spread    3  (  1.684943,  3.415057,  1.684943 )     7.20475889
  WF centre and spread    4  (  1.684943,  1.684943,  3.415057 )     7.20475889
  WF centre and spread    5  (  0.428497,  0.428497,  0.428497 )     8.46188047
  WF centre and spread    6  (  0.428497, -0.428497, -0.428497 )     8.46188050
  WF centre and spread    7  ( -0.428497,  0.428497, -0.428497 )     8.46188051
  WF centre and spread    8  ( -0.428497, -0.428497,  0.428497 )     8.46188048
  Sum of centres and spreads ( 10.200000, 10.200000, 10.200000 )    62.66655747

     10    -0.842E-05     0.0027721486       62.6665574704       1.15  <-- CONV
        O_D=      0.6341339 O_OD=     17.9804364 O_TOT=     62.6665575 <-- SPRD
 Delta: O_D= -0.3879202E-04 O_OD=  0.3037694E-04 O_TOT= -0.8415086E-05 <-- DLTA
 ------------------------------------------------------------------------------

 Writing checkpoint file silicon.chk... done

 Cycle:     20
  WF centre and spread    1  (  3.415053,  3.415053,  3.415053 )     7.20273421
  WF centre and spread    2  (  3.415053,  1.684947,  1.684947 )     7.20273421
  WF centre and spread    3  (  1.684947,  3.415053,  1.684947 )     7.20273424
  WF centre and spread    4  (  1.684947,  1.684947,  3.415053 )     7.20273424
  WF centre and spread    5  (  0.428464,  0.428464,  0.428464 )     8.46390348
  WF centre and spread    6  (  0.428464, -0.428464, -0.428464 )     8.46390351
  WF centre and spread    7  ( -0.428464,  0.428464, -0.428464 )     8.46390353
  WF centre and spread    8  ( -0.428464, -0.428464,  0.428464 )     8.46390349
  Sum of centres and spreads ( 10.200000, 10.200000, 10.200000 )    62.66655092

     20    -0.381E-08     0.0000574309       62.6665509218       1.46  <-- CONV
        O_D=      0.6342005 O_OD=     17.9803633 O_TOT=     62.6665509 <-- SPRD
 Delta: O_D= -0.8118403E-06 O_OD=  0.8080334E-06 O_TOT= -0.3806941E-08 <-- DLTA
 ------------------------------------------------------------------------------

 Writing checkpoint file silicon.chk... done

 Cycle:     30
  WF centre and spread    1  (  3.415052,  3.415052,  3.415052 )     7.20270013
  WF centre and spread    2  (  3.415052,  1.684948,  1.684948 )     7.20270013
  WF centre and spread    3  (  1.684948,  3.415052,  1.684948 )     7.20270015
  WF centre and spread    4  (  1.684948,  1.684948,  3.415052 )     7.20270016
  WF centre and spread    5  (  0.428463,  0.428463,  0.428463 )     8.46393757
  WF centre and spread    6  (  0.428463, -0.428463, -0.428463 )     8.46393760
  WF centre and spread    7  ( -0.428463,  0.428463, -0.428463 )     8.46393762
  WF centre and spread    8  ( -0.428463, -0.428463,  0.428463 )     8.46393757
  Sum of centres and spreads ( 10.200000, 10.200000, 10.200000 )    62.66655092

     30    -0.437E-10     0.0000060185       62.6665509178       1.74  <-- CONV
        O_D=      0.6341997 O_OD=     17.9803642 O_TOT=     62.6665509 <-- SPRD
 Delta: O_D=  0.1169830E-06 O_OD= -0.1170267E-06 O_TOT= -0.4374468E-10 <-- DLTA
 ------------------------------------------------------------------------------

 Writing checkpoint file silicon.chk... done

 Cycle:     40
  WF centre and spread    1  (  3.415052,  3.415052,  3.415052 )     7.20269165
  WF centre and spread    2  (  3.415052,  1.684948,  1.684948 )     7.20269165
  WF centre and spread    3  (  1.684948,  3.415052,  1.684948 )     7.20269168
  WF centre and spread    4  (  1.684948,  1.684948,  3.415052 )     7.20269168
  WF centre and spread    5  (  0.428463,  0.428463,  0.428463 )     8.46394605
  WF centre and spread    6  (  0.428463, -0.428463, -0.428463 )     8.46394608
  WF centre and spread    7  ( -0.428463,  0.428463, -0.428463 )     8.46394610
  WF centre and spread    8  ( -0.428463, -0.428463,  0.428463 )     8.46394604
  Sum of centres and spreads ( 10.200000, 10.200000, 10.200000 )    62.66655092

     40    -0.761E-13     0.0000016674       62.6665509177       2.02  <-- CONV
        O_D=      0.6342000 O_OD=     17.9803638 O_TOT=     62.6665509 <-- SPRD
 Delta: O_D= -0.8796975E-09 O_OD=  0.8796226E-09 O_TOT= -0.7612183E-13 <-- DLTA
 ------------------------------------------------------------------------------

 Writing checkpoint file silicon.chk... done

 Cycle:     50
  WF centre and spread    1  (  3.415052,  3.415052,  3.415052 )     7.20269151
  WF centre and spread    2  (  3.415052,  1.684948,  1.684948 )     7.20269151
  WF centre and spread    3  (  1.684948,  3.415052,  1.684948 )     7.20269154
  WF centre and spread    4  (  1.684948,  1.684948,  3.415052 )     7.20269154
  WF centre and spread    5  (  0.428463,  0.428463,  0.428463 )     8.46394619
  WF centre and spread    6  (  0.428463, -0.428463, -0.428463 )     8.46394622
  WF centre and spread    7  ( -0.428463,  0.428463, -0.428463 )     8.46394624
  WF centre and spread    8  ( -0.428463, -0.428463,  0.428463 )     8.46394618
  Sum of centres and spreads ( 10.200000, 10.200000, 10.200000 )    62.66655092

     50    -0.254E-12     0.0000011240       62.6665509177       2.27  <-- CONV
        O_D=      0.6342000 O_OD=     17.9803638 O_TOT=     62.6665509 <-- SPRD
 Delta: O_D= -0.9588647E-09 O_OD=  0.9586085E-09 O_TOT= -0.2537394E-12 <-- DLTA
 ------------------------------------------------------------------------------

 Writing checkpoint file silicon.chk... done

 Cycle:     60
  WF centre and spread    1  (  3.415052,  3.415052,  3.415052 )     7.20269135
  WF centre and spread    2  (  3.415052,  1.684948,  1.684948 )     7.20269135
  WF centre and spread    3  (  1.684948,  3.415052,  1.684948 )     7.20269138
  WF centre and spread    4  (  1.684948,  1.684948,  3.415052 )     7.20269138
  WF centre and spread    5  (  0.428463,  0.428463,  0.428463 )     8.46394634
  WF centre and spread    6  (  0.428463, -0.428463, -0.428463 )     8.46394637
  WF centre and spread    7  ( -0.428463,  0.428463, -0.428463 )     8.46394640
  WF centre and spread    8  ( -0.428463, -0.428463,  0.428463 )     8.46394634
  Sum of centres and spreads ( 10.200000, 10.200000, 10.200000 )    62.66655092

     60    -0.292E-12     0.0000008755       62.6665509177       2.54  <-- CONV
        O_D=      0.6342000 O_OD=     17.9803639 O_TOT=     62.6665509 <-- SPRD
 Delta: O_D= -0.2172154E-08 O_OD=  0.2171860E-08 O_TOT= -0.2918003E-12 <-- DLTA
 ------------------------------------------------------------------------------

 Writing checkpoint file silicon.chk... done

 Cycle:     70
  WF centre and spread    1  (  3.415052,  3.415052,  3.415052 )     7.20269127
  WF centre and spread    2  (  3.415052,  1.684948,  1.684948 )     7.20269127
  WF centre and spread    3  (  1.684948,  3.415052,  1.684948 )     7.20269129
  WF centre and spread    4  (  1.684948,  1.684948,  3.415052 )     7.20269129
  WF centre and spread    5  (  0.428463,  0.428463,  0.428463 )     8.46394643
  WF centre and spread    6  (  0.428463, -0.428463, -0.428463 )     8.46394646
  WF centre and spread    7  ( -0.428463,  0.428463, -0.428463 )     8.46394648
  WF centre and spread    8  ( -0.428463, -0.428463,  0.428463 )     8.46394642
  Sum of centres and spreads ( 10.200000, 10.200000, 10.200000 )    62.66655092

     70     0.254E-13     0.0000007469       62.6665509177       2.80  <-- CONV
        O_D=      0.6342000 O_OD=     17.9803639 O_TOT=     62.6665509 <-- SPRD
 Delta: O_D= -0.3953208E-09 O_OD=  0.3953450E-09 O_TOT=  0.2537394E-13 <-- DLTA
 ------------------------------------------------------------------------------

 Writing checkpoint file silicon.chk... done

 Cycle:     80
  WF centre and spread    1  (  3.415052,  3.415052,  3.415052 )     7.20269117
  WF centre and spread    2  (  3.415052,  1.684948,  1.684948 )     7.20269117
  WF centre and spread    3  (  1.684948,  3.415052,  1.684948 )     7.20269120
  WF centre and spread    4  (  1.684948,  1.684948,  3.415052 )     7.20269120
  WF centre and spread    5  (  0.428463,  0.428463,  0.428463 )     8.46394652
  WF centre and spread    6  (  0.428463, -0.428463, -0.428463 )     8.46394655
  WF centre and spread    7  ( -0.428463,  0.428463, -0.428463 )     8.46394658
  WF centre and spread    8  ( -0.428463, -0.428463,  0.428463 )     8.46394652
  Sum of centres and spreads ( 10.200000, 10.200000, 10.200000 )    62.66655092

     80    -0.634E-13     0.0000006481       62.6665509177       3.07  <-- CONV
        O_D=      0.6341999 O_OD=     17.9803639 O_TOT=     62.6665509 <-- SPRD
 Delta: O_D= -0.5059175E-09 O_OD=  0.5058581E-09 O_TOT= -0.6343485E-13 <-- DLTA
 ------------------------------------------------------------------------------

 Writing checkpoint file silicon.chk... done

 Cycle:     90
  WF centre and spread    1  (  3.415052,  3.415052,  3.415052 )     7.20269111
  WF centre and spread    2  (  3.415052,  1.684948,  1.684948 )     7.20269111
  WF centre and spread    3  (  1.684948,  3.415052,  1.684948 )     7.20269113
  WF centre and spread    4  (  1.684948,  1.684948,  3.415052 )     7.20269113
  WF centre and spread    5  (  0.428463,  0.428463,  0.428463 )     8.46394659
  WF centre and spread    6  (  0.428463, -0.428463, -0.428463 )     8.46394662
  WF centre and spread    7  ( -0.428463,  0.428463, -0.428463 )     8.46394664
  WF centre and spread    8  ( -0.428463, -0.428463,  0.428463 )     8.46394658
  Sum of centres and spreads ( 10.200000, 10.200000, 10.200000 )    62.66655092

     90    -0.266E-12     0.0000005941       62.6665509177       3.32  <-- CONV
        O_D=      0.6341999 O_OD=     17.9803639 O_TOT=     62.6665509 <-- SPRD
 Delta: O_D= -0.1323509E-08 O_OD=  0.1323248E-08 O_TOT= -0.2664264E-12 <-- DLTA
 ------------------------------------------------------------------------------

 Writing checkpoint file silicon.chk... done

 Cycle:    100
  WF centre and spread    1  (  3.415052,  3.415052,  3.415052 )     7.20269106
  WF centre and spread    2  (  3.415052,  1.684948,  1.684948 )     7.20269106
  WF centre and spread    3  (  1.684948,  3.415052,  1.684948 )     7.20269109
  WF centre and spread    4  (  1.684948,  1.684948,  3.415052 )     7.20269109
  WF centre and spread    5  (  0.428463,  0.428463,  0.428463 )     8.46394663
  WF centre and spread    6  (  0.428463, -0.428463, -0.428463 )     8.46394666
  WF centre and spread    7  ( -0.428463,  0.428463, -0.428463 )     8.46394669
  WF centre and spread    8  ( -0.428463, -0.428463,  0.428463 )     8.46394663
  Sum of centres and spreads ( 10.200000, 10.200000, 10.200000 )    62.66655092

    100     0.228E-12     0.0000005465       62.6665509177       3.58  <-- CONV
        O_D=      0.6341999 O_OD=     17.9803639 O_TOT=     62.6665509 <-- SPRD
 Delta: O_D= -0.5174563E-09 O_OD=  0.5176855E-09 O_TOT=  0.2283655E-12 <-- DLTA
 ------------------------------------------------------------------------------

 Writing checkpoint file silicon.chk... done

 Final State
  WF centre and spread    1  (  3.415052,  3.415052,  3.415052 )     7.20269106
  WF centre and spread    2  (  3.415052,  1.684948,  1.684948 )     7.20269106
  WF centre and spread    3  (  1.684948,  3.415052,  1.684948 )     7.20269109
  WF centre and spread    4  (  1.684948,  1.684948,  3.415052 )     7.20269109
  WF centre and spread    5  (  0.428463,  0.428463,  0.428463 )     8.46394663
  WF centre and spread    6  (  0.428463, -0.428463, -0.428463 )     8.46394666
  WF centre and spread    7  ( -0.428463,  0.428463, -0.428463 )     8.46394669
  WF centre and spread    8  ( -0.428463, -0.428463,  0.428463 )     8.46394663
  Sum of centres and spreads ( 10.200000, 10.200000, 10.200000 )    62.66655092

        Spreads (Bohr^2)       Omega I      =    44.051987097
        ================       Omega D      =     0.634199938
                               Omega OD     =    17.980363883
   Final Spread (Bohr^2)       Omega Total  =    62.666550918
 ------------------------------------------------------------------------------
 Time for wannierise           10.700 (sec)

 Writing checkpoint file silicon.chk... done

 Time for plotting              0.000 (sec)
 Total Execution Time          15.122 (sec)

 *===========================================================================*
 |                             TIMING INFORMATION                            |
 *===========================================================================*
 |    Tag                                                Ncalls      Time (s)|
 |---------------------------------------------------------------------------|
 |kmesh: get                                        :         1         0.354|
 |overlap: allocate                                 :         1         0.000|
 |overlap: read                                     :         1         0.455|
 |dis: main                                         :         1         3.512|
 |wann: main                                        :         1        10.700|
 |plot: main                                        :         1         0.000|
 *---------------------------------------------------------------------------*

 All done: wannier90 exiting
