written on  6Jun2018 at 10:35:46 
12
5
1
2
3
4
5
  -2.8258062938705995       0.0000000000000000      -2.8258062938705995       0.0000000000000000       2.8258062938705995       2.8258062938705995       2.8258062938705995       2.8258062938705995       0.0000000000000000    
  -1.1117508869607091       1.1117508869607091      -1.1117508869607091      -1.1117508869607091       1.1117508869607091       1.1117508869607091       1.1117508869607091       1.1117508869607091      -1.1117508869607091    
64
4 4 4
   0.0000000000000000       0.0000000000000000       0.0000000000000000    
   0.0000000000000000       0.0000000000000000      0.25000000000000000    
   0.0000000000000000       0.0000000000000000      0.50000000000000000    
   0.0000000000000000       0.0000000000000000      0.75000000000000000    
   0.0000000000000000      0.25000000000000000       0.0000000000000000    
   0.0000000000000000      0.25000000000000000      0.25000000000000000    
   0.0000000000000000      0.25000000000000000      0.50000000000000000    
   0.0000000000000000      0.25000000000000000      0.75000000000000000    
   0.0000000000000000      0.50000000000000000       0.0000000000000000    
   0.0000000000000000      0.50000000000000000      0.25000000000000000    
   0.0000000000000000      0.50000000000000000      0.50000000000000000    
   0.0000000000000000      0.50000000000000000      0.75000000000000000    
   0.0000000000000000      0.75000000000000000       0.0000000000000000    
   0.0000000000000000      0.75000000000000000      0.25000000000000000    
   0.0000000000000000      0.75000000000000000      0.50000000000000000    
   0.0000000000000000      0.75000000000000000      0.75000000000000000    
  0.25000000000000000       0.0000000000000000       0.0000000000000000    
  0.25000000000000000       0.0000000000000000      0.25000000000000000    
  0.25000000000000000       0.0000000000000000      0.50000000000000000    
  0.25000000000000000       0.0000000000000000      0.75000000000000000    
  0.25000000000000000      0.25000000000000000       0.0000000000000000    
  0.25000000000000000      0.25000000000000000      0.25000000000000000    
  0.25000000000000000      0.25000000000000000      0.50000000000000000    
  0.25000000000000000      0.25000000000000000      0.75000000000000000    
  0.25000000000000000      0.50000000000000000       0.0000000000000000    
  0.25000000000000000      0.50000000000000000      0.25000000000000000    
  0.25000000000000000      0.50000000000000000      0.50000000000000000    
  0.25000000000000000      0.50000000000000000      0.75000000000000000    
  0.25000000000000000      0.75000000000000000       0.0000000000000000    
  0.25000000000000000      0.75000000000000000      0.25000000000000000    
  0.25000000000000000      0.75000000000000000      0.50000000000000000    
  0.25000000000000000      0.75000000000000000      0.75000000000000000    
  0.50000000000000000       0.0000000000000000       0.0000000000000000    
  0.50000000000000000       0.0000000000000000      0.25000000000000000    
  0.50000000000000000       0.0000000000000000      0.50000000000000000    
  0.50000000000000000       0.0000000000000000      0.75000000000000000    
  0.50000000000000000      0.25000000000000000       0.0000000000000000    
  0.50000000000000000      0.25000000000000000      0.25000000000000000    
  0.50000000000000000      0.25000000000000000      0.50000000000000000    
  0.50000000000000000      0.25000000000000000      0.75000000000000000    
  0.50000000000000000      0.50000000000000000       0.0000000000000000    
  0.50000000000000000      0.50000000000000000      0.25000000000000000    
  0.50000000000000000      0.50000000000000000      0.50000000000000000    
  0.50000000000000000      0.50000000000000000      0.75000000000000000    
  0.50000000000000000      0.75000000000000000       0.0000000000000000    
  0.50000000000000000      0.75000000000000000      0.25000000000000000    
  0.50000000000000000      0.75000000000000000      0.50000000000000000    
  0.50000000000000000      0.75000000000000000      0.75000000000000000    
  0.75000000000000000       0.0000000000000000       0.0000000000000000    
  0.75000000000000000       0.0000000000000000      0.25000000000000000    
  0.75000000000000000       0.0000000000000000      0.50000000000000000    
  0.75000000000000000       0.0000000000000000      0.75000000000000000    
  0.75000000000000000      0.25000000000000000       0.0000000000000000    
  0.75000000000000000      0.25000000000000000      0.25000000000000000    
  0.75000000000000000      0.25000000000000000      0.50000000000000000    
  0.75000000000000000      0.25000000000000000      0.75000000000000000    
  0.75000000000000000      0.50000000000000000       0.0000000000000000    
  0.75000000000000000      0.50000000000000000      0.25000000000000000    
  0.75000000000000000      0.50000000000000000      0.50000000000000000    
  0.75000000000000000      0.50000000000000000      0.75000000000000000    
  0.75000000000000000      0.75000000000000000       0.0000000000000000    
  0.75000000000000000      0.75000000000000000      0.25000000000000000    
  0.75000000000000000      0.75000000000000000      0.50000000000000000    
  0.75000000000000000      0.75000000000000000      0.75000000000000000    
8
8
postwann            
1
   13.567803345757266    
1
1
1
1
1
1
1
1
1
1
1
1
1
1
1
1
1
1
1
1
1
1
1
1
1
1
1
1
1
1
1
1
1
1
1
1
1
1
1
1
1
1
1
1
1
1
1
1
1
1
1
1
1
1
1
1
1
1
1
1
1
1
1
1
1
1
1
1
1
1
1
1
1
1
1
1
1
1
1
1
1
1
1
1
1
1
1
1
1
1
1
1
1
1
1
1
1
1
1
1
1
1
1
1
1
1
1
1
1
1
1
1
1
1
1
1
1
1
1
1
1
1
1
1
1
1
1
1
1
1
1
1
1
1
1
1
1
1
1
1
1
1
1
1
1
1
1
1
1
1
1
1
1
1
1
1
1
1
1
1
1
1
1
1
1
1
1
1
1
1
1
1
1
1
1
1
1
1
1
1
1
1
1
1
1
1
1
1
1
1
1
1
1
1
1
1
1
1
1
1
1
1
1
1
1
1
1
1
1
1
1
1
1
1
1
1
1
1
1
1
1
1
1
1
1
1
1
1
1
1
1
1
1
1
1
1
1
1
1
1
1
1
1
1
1
1
1
1
1
1
1
1
1
1
1
1
1
1
1
1
1
1
1
1
1
1
1
1
1
1
1
1
1
1
1
1
1
1
1
1
1
1
1
1
1
1
1
1
1
1
1
1
1
1
1
1
1
1
1
1
1
1
1
1
1
1
1
1
1
1
1
1
1
1
1
1
1
1
1
1
1
1
1
1
1
1
1
1
1
1
1
1
1
1
1
1
1
1
1
1
1
1
1
1
1
1
1
1
1
1
1
1
1
1
1
1
1
1
1
1
1
1
1
1
1
1
1
1
1
1
1
1
1
1
1
1
1
1
1
1
1
1
1
1
1
1
1
1
1
1
1
1
1
1
1
1
1
1
1
1
1
1
1
1
1
1
1
1
1
1
1
1
1
1
1
1
1
1
1
1
1
1
1
1
1
1
1
1
1
1
1
1
1
1
1
1
1
1
1
1
1
1
1
1
1
1
1
1
1
1
1
1
1
1
1
1
1
1
1
1
1
1
1
1
1
1
1
1
1
1
1
1
1
1
1
1
1
1
1
1
1
1
1
1
1
1
1
1
1
1
1
1
1
1
1
1
1
1
1
1
1
1
1
1
1
1
1
1
1
1
1
1
1
1
1
1
1
1
1
1
1
1
1
1
1
1
1
1
1
1
1
1
1
1
1
1
1
1
1
1
1
1
1
1
1
1
1
1
1
1
1
1
1
1
1
1
1
1
1
1
1
1
1
1
1
1
1
1
1
1
1
1
1
1
1
1
1
1
1
1
1
1
1
1
1
1
1
1
1
1
1
1
1
1
1
1
1
1
1
1
1
1
1
1
1
1
1
1
1
1
1
1
1
1
1
1
1
1
1
1
1
1
1
1
1
1
1
1
1
1
1
1
1
1
1
1
1
1
1
1
1
1
1
1
1
1
1
1
1
1
1
1
1
1
1
1
1
1
1
1
1
1
1
1
1
1
1
1
1
1
1
1
1
1
1
1
1
1
1
1
1
1
1
1
1
1
1
1
1
1
1
1
1
1
1
1
1
1
1
1
1
1
1
1
1
1
1
1
1
1
1
1
1
1
1
1
1
1
1
1
1
1
1
1
1
1
1
1
1
1
1
1
1
1
1
1
1
1
1
1
1
1
1
1
1
1
1
1
1
1
1
1
1
1
1
1
1
1
1
1
1
1
1
1
1
1
1
1
12
12
12
12
12
12
12
12
12
12
12
12
12
12
12
12
12
12
12
12
12
12
12
12
12
12
12
12
12
12
12
12
12
12
12
12
12
12
12
12
12
12
12
12
12
12
12
12
12
12
12
12
12
12
12
12
12
12
12
12
12
12
12
12
   1.0000000000000000       0.0000000000000000    
   0.0000000000000000       0.0000000000000000    
   0.0000000000000000       0.0000000000000000    
   0.0000000000000000       0.0000000000000000    
   0.0000000000000000       0.0000000000000000    
   0.0000000000000000       0.0000000000000000    
   0.0000000000000000       0.0000000000000000    
   0.0000000000000000       0.0000000000000000    
   0.0000000000000000       0.0000000000000000    
   0.0000000000000000       0.0000000000000000    
   0.0000000000000000       0.0000000000000000    
   0.0000000000000000       0.0000000000000000    
   0.0000000000000000       0.0000000000000000    
   1.0000000000000000       0.0000000000000000    
   0.0000000000000000       0.0000000000000000    
   0.0000000000000000       0.0000000000000000    
   0.0000000000000000       0.0000000000000000    
   0.0000000000000000       0.0000000000000000    
   0.0000000000000000       0.0000000000000000    
   0.0000000000000000       0.0000000000000000    
   0.0000000000000000       0.0000000000000000    
   0.0000000000000000       0.0000000000000000    
   0.0000000000000000       0.0000000000000000    
   0.0000000000000000       0.0000000000000000    
   0.0000000000000000       0.0000000000000000    
   0.0000000000000000       0.0000000000000000    
   1.0000000000000000       0.0000000000000000    
   0.0000000000000000       0.0000000000000000    
   0.0000000000000000       0.0000000000000000    
   0.0000000000000000       0.0000000000000000    
   0.0000000000000000       0.0000000000000000    
   0.0000000000000000       0.0000000000000000    
   0.0000000000000000       0.0000000000000000    
   0.0000000000000000       0.0000000000000000    
   0.0000000000000000       0.0000000000000000    
   0.0000000000000000       0.0000000000000000    
   0.0000000000000000       0.0000000000000000    
   0.0000000000000000       0.0000000000000000    
   0.0000000000000000       0.0000000000000000    
   1.0000000000000000       0.0000000000000000    
   0.0000000000000000       0.0000000000000000    
   0.0000000000000000       0.0000000000000000    
   0.0000000000000000       0.0000000000000000    
   0.0000000000000000       0.0000000000000000    
   0.0000000000000000       0.0000000000000000    
   0.0000000000000000       0.0000000000000000    
   0.0000000000000000       0.0000000000000000    
   0.0000000000000000       0.0000000000000000    
   0.0000000000000000       0.0000000000000000    
   0.0000000000000000       0.0000000000000000    
   0.0000000000000000       0.0000000000000000    
   0.0000000000000000       0.0000000000000000    
   1.0000000000000000       0.0000000000000000    
   0.0000000000000000       0.0000000000000000    
   0.0000000000000000       0.0000000000000000    
   0.0000000000000000       0.0000000000000000    
   0.0000000000000000       0.0000000000000000    
   0.0000000000000000       0.0000000000000000    
   0.0000000000000000       0.0000000000000000    
   0.0000000000000000       0.0000000000000000    
   0.0000000000000000       0.0000000000000000    
   0.0000000000000000       0.0000000000000000    
   0.0000000000000000       0.0000000000000000    
   0.0000000000000000       0.0000000000000000    
   0.0000000000000000       0.0000000000000000    
   1.0000000000000000       0.0000000000000000    
   0.0000000000000000       0.0000000000000000    
   0.0000000000000000       0.0000000000000000    
   0.0000000000000000       0.0000000000000000    
   0.0000000000000000       0.0000000000000000    
   0.0000000000000000       0.0000000000000000    
   0.0000000000000000       0.0000000000000000    
   0.0000000000000000       0.0000000000000000    
   0.0000000000000000       0.0000000000000000    
   0.0000000000000000       0.0000000000000000    
   0.0000000000000000       0.0000000000000000    
   0.0000000000000000       0.0000000000000000    
   0.0000000000000000       0.0000000000000000    
   1.0000000000000000       0.0000000000000000    
   0.0000000000000000       0.0000000000000000    
   0.0000000000000000       0.0000000000000000    
   0.0000000000000000       0.0000000000000000    
   0.0000000000000000       0.0000000000000000    
   0.0000000000000000       0.0000000000000000    
   0.0000000000000000       0.0000000000000000    
   0.0000000000000000       0.0000000000000000    
   0.0000000000000000       0.0000000000000000    
   0.0000000000000000       0.0000000000000000    
   0.0000000000000000       0.0000000000000000    
   0.0000000000000000       0.0000000000000000    
   0.0000000000000000       0.0000000000000000    
   1.0000000000000000       0.0000000000000000    
   0.0000000000000000       0.0000000000000000    
   0.0000000000000000       0.0000000000000000    
   0.0000000000000000       0.0000000000000000    
   0.0000000000000000       0.0000000000000000    
   1.0000000000000000       0.0000000000000000    
   0.0000000000000000       0.0000000000000000    
   0.0000000000000000       0.0000000000000000    
   0.0000000000000000       0.0000000000000000    
   0.0000000000000000       0.0000000000000000    
   0.0000000000000000       0.0000000000000000    
   0.0000000000000000       0.0000000000000000    
   0.0000000000000000       0.0000000000000000    
   0.0000000000000000       0.0000000000000000    
   0.0000000000000000       0.0000000000000000    
   0.0000000000000000       0.0000000000000000    
   0.0000000000000000       0.0000000000000000    
   0.0000000000000000       0.0000000000000000    
   1.0000000000000000       0.0000000000000000    
   0.0000000000000000       0.0000000000000000    
   0.0000000000000000       0.0000000000000000    
   0.0000000000000000       0.0000000000000000    
   0.0000000000000000       0.0000000000000000    
   0.0000000000000000       0.0000000000000000    
   0.0000000000000000       0.0000000000000000    
   0.0000000000000000       0.0000000000000000    
   0.0000000000000000       0.0000000000000000    
   0.0000000000000000       0.0000000000000000    
   0.0000000000000000       0.0000000000000000    
   0.0000000000000000       0.0000000000000000    
   0.0000000000000000       0.0000000000000000    
   1.0000000000000000       0.0000000000000000    
   0.0000000000000000       0.0000000000000000    
   0.0000000000000000       0.0000000000000000    
   0.0000000000000000       0.0000000000000000    
   0.0000000000000000       0.0000000000000000    
   0.0000000000000000       0.0000000000000000    
   0.0000000000000000       0.0000000000000000    
   0.0000000000000000       0.0000000000000000    
   0.0000000000000000       0.0000000000000000    
   0.0000000000000000       0.0000000000000000    
   0.0000000000000000       0.0000000000000000    
   0.0000000000000000       0.0000000000000000    
   0.0000000000000000       0.0000000000000000    
   1.0000000000000000       0.0000000000000000    
   0.0000000000000000       0.0000000000000000    
   0.0000000000000000       0.0000000000000000    
   0.0000000000000000       0.0000000000000000    
   0.0000000000000000       0.0000000000000000    
   0.0000000000000000       0.0000000000000000    
   0.0000000000000000       0.0000000000000000    
   0.0000000000000000       0.0000000000000000    
   0.0000000000000000       0.0000000000000000    
   0.0000000000000000       0.0000000000000000    
   0.0000000000000000       0.0000000000000000    
   0.0000000000000000       0.0000000000000000    
   0.0000000000000000       0.0000000000000000    
   1.0000000000000000       0.0000000000000000    
   0.0000000000000000       0.0000000000000000    
   0.0000000000000000       0.0000000000000000    
   0.0000000000000000       0.0000000000000000    
   0.0000000000000000       0.0000000000000000    
   0.0000000000000000       0.0000000000000000    
   0.0000000000000000       0.0000000000000000    
   0.0000000000000000       0.0000000000000000    
   0.0000000000000000       0.0000000000000000    
   0.0000000000000000       0.0000000000000000    
   0.0000000000000000       0.0000000000000000    
   0.0000000000000000       0.0000000000000000    
   0.0000000000000000       0.0000000000000000    
   1.0000000000000000       0.0000000000000000    
   0.0000000000000000       0.0000000000000000    
   0.0000000000000000       0.0000000000000000    
   0.0000000000000000       0.0000000000000000    
   0.0000000000000000       0.0000000000000000    
   0.0000000000000000       0.0000000000000000    
   0.0000000000000000       0.0000000000000000    
   0.0000000000000000       0.0000000000000000    
   0.0000000000000000       0.0000000000000000    
   0.0000000000000000       0.0000000000000000    
   0.0000000000000000       0.0000000000000000    
   0.0000000000000000       0.0000000000000000    
   0.0000000000000000       0.0000000000000000    
   1.0000000000000000       0.0000000000000000    
   0.0000000000000000       0.0000000000000000    
   0.0000000000000000       0.0000000000000000    
   0.0000000000000000       0.0000000000000000    
   0.0000000000000000       0.0000000000000000    
   0.0000000000000000       0.0000000000000000    
   0.0000000000000000       0.0000000000000000    
   0.0000000000000000       0.0000000000000000    
   0.0000000000000000       0.0000000000000000    
   0.0000000000000000       0.0000000000000000    
   0.0000000000000000       0.0000000000000000    
   0.0000000000000000       0.0000000000000000    
   0.0000000000000000       0.0000000000000000    
   1.0000000000000000       0.0000000000000000    
   0.0000000000000000       0.0000000000000000    
   0.0000000000000000       0.0000000000000000    
   0.0000000000000000       0.0000000000000000    
   0.0000000000000000       0.0000000000000000    
   1.0000000000000000       0.0000000000000000    
   0.0000000000000000       0.0000000000000000    
   0.0000000000000000       0.0000000000000000    
   0.0000000000000000       0.0000000000000000    
   0.0000000000000000       0.0000000000000000    
   0.0000000000000000       0.0000000000000000    
   0.0000000000000000       0.0000000000000000    
   0.0000000000000000       0.0000000000000000    
   0.0000000000000000       0.0000000000000000    
   0.0000000000000000       0.0000000000000000    
   0.0000000000000000       0.0000000000000000    
   0.0000000000000000       0.0000000000000000    
   0.0000000000000000       0.0000000000000000    
   1.0000000000000000       0.0000000000000000    
   0.0000000000000000       0.0000000000000000    
   0.0000000000000000       0.0000000000000000    
   0.0000000000000000       0.0000000000000000    
   0.0000000000000000       0.0000000000000000    
   0.0000000000000000       0.0000000000000000    
   0.0000000000000000       0.0000000000000000    
   0.0000000000000000       0.0000000000000000    
   0.0000000000000000       0.0000000000000000    
   0.0000000000000000       0.0000000000000000    
   0.0000000000000000       0.0000000000000000    
   0.0000000000000000       0.0000000000000000    
   0.0000000000000000       0.0000000000000000    
   1.0000000000000000       0.0000000000000000    
   0.0000000000000000       0.0000000000000000    
   0.0000000000000000       0.0000000000000000    
   0.0000000000000000       0.0000000000000000    
   0.0000000000000000       0.0000000000000000    
   0.0000000000000000       0.0000000000000000    
   0.0000000000000000       0.0000000000000000    
   0.0000000000000000       0.0000000000000000    
   0.0000000000000000       0.0000000000000000    
   0.0000000000000000       0.0000000000000000    
   0.0000000000000000       0.0000000000000000    
   0.0000000000000000       0.0000000000000000    
   0.0000000000000000       0.0000000000000000    
   1.0000000000000000       0.0000000000000000    
   0.0000000000000000       0.0000000000000000    
   0.0000000000000000       0.0000000000000000    
   0.0000000000000000       0.0000000000000000    
   0.0000000000000000       0.0000000000000000    
   0.0000000000000000       0.0000000000000000    
   0.0000000000000000       0.0000000000000000    
   0.0000000000000000       0.0000000000000000    
   0.0000000000000000       0.0000000000000000    
   0.0000000000000000       0.0000000000000000    
   0.0000000000000000       0.0000000000000000    
   0.0000000000000000       0.0000000000000000    
   0.0000000000000000       0.0000000000000000    
   1.0000000000000000       0.0000000000000000    
   0.0000000000000000       0.0000000000000000    
   0.0000000000000000       0.0000000000000000    
   0.0000000000000000       0.0000000000000000    
   0.0000000000000000       0.0000000000000000    
   0.0000000000000000       0.0000000000000000    
   0.0000000000000000       0.0000000000000000    
   0.0000000000000000       0.0000000000000000    
   0.0000000000000000       0.0000000000000000    
   0.0000000000000000       0.0000000000000000    
   0.0000000000000000       0.0000000000000000    
   0.0000000000000000       0.0000000000000000    
   0.0000000000000000       0.0000000000000000    
   1.0000000000000000       0.0000000000000000    
   0.0000000000000000       0.0000000000000000    
   0.0000000000000000       0.0000000000000000    
   0.0000000000000000       0.0000000000000000    
   0.0000000000000000       0.0000000000000000    
   0.0000000000000000       0.0000000000000000    
   0.0000000000000000       0.0000000000000000    
   0.0000000000000000       0.0000000000000000    
   0.0000000000000000       0.0000000000000000    
   0.0000000000000000       0.0000000000000000    
   0.0000000000000000       0.0000000000000000    
   0.0000000000000000       0.0000000000000000    
   0.0000000000000000       0.0000000000000000    
   1.0000000000000000       0.0000000000000000    
   0.0000000000000000       0.0000000000000000    
   0.0000000000000000       0.0000000000000000    
   0.0000000000000000       0.0000000000000000    
   0.0000000000000000       0.0000000000000000    
   0.0000000000000000       0.0000000000000000    
   0.0000000000000000       0.0000000000000000    
   0.0000000000000000       0.0000000000000000    
   0.0000000000000000       0.0000000000000000    
   0.0000000000000000       0.0000000000000000    
   0.0000000000000000       0.0000000000000000    
   0.0000000000000000       0.0000000000000000    
   0.0000000000000000       0.0000000000000000    
 -0.85932224547365077     -0.27005743290551132    
  0.39299866223215385      0.76386992146585633E-01
 -0.66609151713045267E-03 -0.13236682247774075E-03
 -0.83476685223494366E-03 -0.13726187839036312E-03
  0.16837506764879578       0.0000000000000000    
   1.0000000000000000       0.0000000000000000    
   0.0000000000000000       0.0000000000000000    
   0.0000000000000000       0.0000000000000000    
   0.0000000000000000       0.0000000000000000    
   0.0000000000000000       0.0000000000000000    
   0.0000000000000000       0.0000000000000000    
   0.0000000000000000       0.0000000000000000    
   0.0000000000000000       0.0000000000000000    
   0.0000000000000000       0.0000000000000000    
   0.0000000000000000       0.0000000000000000    
   0.0000000000000000       0.0000000000000000    
   0.0000000000000000       0.0000000000000000    
   0.0000000000000000       0.0000000000000000    
   1.0000000000000000       0.0000000000000000    
   0.0000000000000000       0.0000000000000000    
   0.0000000000000000       0.0000000000000000    
   0.0000000000000000       0.0000000000000000    
   0.0000000000000000       0.0000000000000000    
   0.0000000000000000       0.0000000000000000    
   0.0000000000000000       0.0000000000000000    
   0.0000000000000000       0.0000000000000000    
   0.0000000000000000       0.0000000000000000    
   0.0000000000000000       0.0000000000000000    
   0.0000000000000000       0.0000000000000000    
   0.0000000000000000       0.0000000000000000    
   0.0000000000000000       0.0000000000000000    
   1.0000000000000000       0.0000000000000000    
   0.0000000000000000       0.0000000000000000    
   0.0000000000000000       0.0000000000000000    
   0.0000000000000000       0.0000000000000000    
   0.0000000000000000       0.0000000000000000    
   0.0000000000000000       0.0000000000000000    
   0.0000000000000000       0.0000000000000000    
   0.0000000000000000       0.0000000000000000    
   0.0000000000000000       0.0000000000000000    
   0.0000000000000000       0.0000000000000000    
   0.0000000000000000       0.0000000000000000    
   0.0000000000000000       0.0000000000000000    
   0.0000000000000000       0.0000000000000000    
   1.0000000000000000       0.0000000000000000    
   0.0000000000000000       0.0000000000000000    
   0.0000000000000000       0.0000000000000000    
   0.0000000000000000       0.0000000000000000    
   0.0000000000000000       0.0000000000000000    
   0.0000000000000000       0.0000000000000000    
   0.0000000000000000       0.0000000000000000    
   0.0000000000000000       0.0000000000000000    
   0.0000000000000000       0.0000000000000000    
   0.0000000000000000       0.0000000000000000    
   0.0000000000000000       0.0000000000000000    
   0.0000000000000000       0.0000000000000000    
   0.0000000000000000       0.0000000000000000    
   1.0000000000000000       0.0000000000000000    
   0.0000000000000000       0.0000000000000000    
   0.0000000000000000       0.0000000000000000    
   0.0000000000000000       0.0000000000000000    
   0.0000000000000000       0.0000000000000000    
   0.0000000000000000       0.0000000000000000    
   0.0000000000000000       0.0000000000000000    
   0.0000000000000000       0.0000000000000000    
   0.0000000000000000       0.0000000000000000    
   0.0000000000000000       0.0000000000000000    
   0.0000000000000000       0.0000000000000000    
   0.0000000000000000       0.0000000000000000    
   0.0000000000000000       0.0000000000000000    
   1.0000000000000000       0.0000000000000000    
   0.0000000000000000       0.0000000000000000    
   0.0000000000000000       0.0000000000000000    
   0.0000000000000000       0.0000000000000000    
   0.0000000000000000       0.0000000000000000    
   0.0000000000000000       0.0000000000000000    
   0.0000000000000000       0.0000000000000000    
   0.0000000000000000       0.0000000000000000    
   0.0000000000000000       0.0000000000000000    
   0.0000000000000000       0.0000000000000000    
   0.0000000000000000       0.0000000000000000    
   0.0000000000000000       0.0000000000000000    
   0.0000000000000000       0.0000000000000000    
   1.0000000000000000       0.0000000000000000    
   0.0000000000000000       0.0000000000000000    
   0.0000000000000000       0.0000000000000000    
   0.0000000000000000       0.0000000000000000    
   0.0000000000000000       0.0000000000000000    
   0.0000000000000000       0.0000000000000000    
   0.0000000000000000       0.0000000000000000    
   0.0000000000000000       0.0000000000000000    
   0.0000000000000000       0.0000000000000000    
   0.0000000000000000       0.0000000000000000    
   0.0000000000000000       0.0000000000000000    
   0.0000000000000000       0.0000000000000000    
   0.0000000000000000       0.0000000000000000    
   1.0000000000000000       0.0000000000000000    
   0.0000000000000000       0.0000000000000000    
   0.0000000000000000       0.0000000000000000    
   0.0000000000000000       0.0000000000000000    
   0.0000000000000000       0.0000000000000000    
   1.0000000000000000       0.0000000000000000    
   0.0000000000000000       0.0000000000000000    
   0.0000000000000000       0.0000000000000000    
   0.0000000000000000       0.0000000000000000    
   0.0000000000000000       0.0000000000000000    
   0.0000000000000000       0.0000000000000000    
   0.0000000000000000       0.0000000000000000    
   0.0000000000000000       0.0000000000000000    
   0.0000000000000000       0.0000000000000000    
   0.0000000000000000       0.0000000000000000    
   0.0000000000000000       0.0000000000000000    
   0.0000000000000000       0.0000000000000000    
   0.0000000000000000       0.0000000000000000    
   1.0000000000000000       0.0000000000000000    
   0.0000000000000000       0.0000000000000000    
   0.0000000000000000       0.0000000000000000    
   0.0000000000000000       0.0000000000000000    
   0.0000000000000000       0.0000000000000000    
   0.0000000000000000       0.0000000000000000    
   0.0000000000000000       0.0000000000000000    
   0.0000000000000000       0.0000000000000000    
   0.0000000000000000       0.0000000000000000    
   0.0000000000000000       0.0000000000000000    
   0.0000000000000000       0.0000000000000000    
   0.0000000000000000       0.0000000000000000    
   0.0000000000000000       0.0000000000000000    
   1.0000000000000000       0.0000000000000000    
   0.0000000000000000       0.0000000000000000    
   0.0000000000000000       0.0000000000000000    
   0.0000000000000000       0.0000000000000000    
   0.0000000000000000       0.0000000000000000    
   0.0000000000000000       0.0000000000000000    
   0.0000000000000000       0.0000000000000000    
   0.0000000000000000       0.0000000000000000    
   0.0000000000000000       0.0000000000000000    
   0.0000000000000000       0.0000000000000000    
   0.0000000000000000       0.0000000000000000    
   0.0000000000000000       0.0000000000000000    
   0.0000000000000000       0.0000000000000000    
   1.0000000000000000       0.0000000000000000    
   0.0000000000000000       0.0000000000000000    
   0.0000000000000000       0.0000000000000000    
   0.0000000000000000       0.0000000000000000    
   0.0000000000000000       0.0000000000000000    
   0.0000000000000000       0.0000000000000000    
   0.0000000000000000       0.0000000000000000    
   0.0000000000000000       0.0000000000000000    
   0.0000000000000000       0.0000000000000000    
   0.0000000000000000       0.0000000000000000    
   0.0000000000000000       0.0000000000000000    
   0.0000000000000000       0.0000000000000000    
   0.0000000000000000       0.0000000000000000    
   1.0000000000000000       0.0000000000000000    
   0.0000000000000000       0.0000000000000000    
   0.0000000000000000       0.0000000000000000    
   0.0000000000000000       0.0000000000000000    
   0.0000000000000000       0.0000000000000000    
   0.0000000000000000       0.0000000000000000    
   0.0000000000000000       0.0000000000000000    
   0.0000000000000000       0.0000000000000000    
   0.0000000000000000       0.0000000000000000    
   0.0000000000000000       0.0000000000000000    
   0.0000000000000000       0.0000000000000000    
   0.0000000000000000       0.0000000000000000    
   0.0000000000000000       0.0000000000000000    
   1.0000000000000000       0.0000000000000000    
   0.0000000000000000       0.0000000000000000    
   0.0000000000000000       0.0000000000000000    
   0.0000000000000000       0.0000000000000000    
   0.0000000000000000       0.0000000000000000    
   0.0000000000000000       0.0000000000000000    
   0.0000000000000000       0.0000000000000000    
   0.0000000000000000       0.0000000000000000    
   0.0000000000000000       0.0000000000000000    
   0.0000000000000000       0.0000000000000000    
   0.0000000000000000       0.0000000000000000    
   0.0000000000000000       0.0000000000000000    
   0.0000000000000000       0.0000000000000000    
   1.0000000000000000       0.0000000000000000    
   0.0000000000000000       0.0000000000000000    
   0.0000000000000000       0.0000000000000000    
   0.0000000000000000       0.0000000000000000    
   0.0000000000000000       0.0000000000000000    
   0.0000000000000000       0.0000000000000000    
   0.0000000000000000       0.0000000000000000    
   0.0000000000000000       0.0000000000000000    
   0.0000000000000000       0.0000000000000000    
   0.0000000000000000       0.0000000000000000    
   0.0000000000000000       0.0000000000000000    
   0.0000000000000000       0.0000000000000000    
   0.0000000000000000       0.0000000000000000    
   1.0000000000000000       0.0000000000000000    
   0.0000000000000000       0.0000000000000000    
   0.0000000000000000       0.0000000000000000    
   0.0000000000000000       0.0000000000000000    
   0.0000000000000000       0.0000000000000000    
   1.0000000000000000       0.0000000000000000    
   0.0000000000000000       0.0000000000000000    
   0.0000000000000000       0.0000000000000000    
   0.0000000000000000       0.0000000000000000    
   0.0000000000000000       0.0000000000000000    
   0.0000000000000000       0.0000000000000000    
   0.0000000000000000       0.0000000000000000    
   0.0000000000000000       0.0000000000000000    
   0.0000000000000000       0.0000000000000000    
   0.0000000000000000       0.0000000000000000    
   0.0000000000000000       0.0000000000000000    
   0.0000000000000000       0.0000000000000000    
   0.0000000000000000       0.0000000000000000    
   1.0000000000000000       0.0000000000000000    
   0.0000000000000000       0.0000000000000000    
   0.0000000000000000       0.0000000000000000    
   0.0000000000000000       0.0000000000000000    
   0.0000000000000000       0.0000000000000000    
   0.0000000000000000       0.0000000000000000    
   0.0000000000000000       0.0000000000000000    
   0.0000000000000000       0.0000000000000000    
   0.0000000000000000       0.0000000000000000    
   0.0000000000000000       0.0000000000000000    
   0.0000000000000000       0.0000000000000000    
   0.0000000000000000       0.0000000000000000    
   0.0000000000000000       0.0000000000000000    
   1.0000000000000000       0.0000000000000000    
   0.0000000000000000       0.0000000000000000    
   0.0000000000000000       0.0000000000000000    
   0.0000000000000000       0.0000000000000000    
   0.0000000000000000       0.0000000000000000    
   0.0000000000000000       0.0000000000000000    
   0.0000000000000000       0.0000000000000000    
   0.0000000000000000       0.0000000000000000    
   0.0000000000000000       0.0000000000000000    
   0.0000000000000000       0.0000000000000000    
   0.0000000000000000       0.0000000000000000    
   0.0000000000000000       0.0000000000000000    
   0.0000000000000000       0.0000000000000000    
   1.0000000000000000       0.0000000000000000    
   0.0000000000000000       0.0000000000000000    
   0.0000000000000000       0.0000000000000000    
   0.0000000000000000       0.0000000000000000    
   0.0000000000000000       0.0000000000000000    
   0.0000000000000000       0.0000000000000000    
   0.0000000000000000       0.0000000000000000    
   0.0000000000000000       0.0000000000000000    
   0.0000000000000000       0.0000000000000000    
   0.0000000000000000       0.0000000000000000    
   0.0000000000000000       0.0000000000000000    
   0.0000000000000000       0.0000000000000000    
   0.0000000000000000       0.0000000000000000    
   1.0000000000000000       0.0000000000000000    
   0.0000000000000000       0.0000000000000000    
   0.0000000000000000       0.0000000000000000    
   0.0000000000000000       0.0000000000000000    
   0.0000000000000000       0.0000000000000000    
   0.0000000000000000       0.0000000000000000    
   0.0000000000000000       0.0000000000000000    
   0.0000000000000000       0.0000000000000000    
   0.0000000000000000       0.0000000000000000    
   0.0000000000000000       0.0000000000000000    
   0.0000000000000000       0.0000000000000000    
   0.0000000000000000       0.0000000000000000    
   0.0000000000000000       0.0000000000000000    
   1.0000000000000000       0.0000000000000000    
   0.0000000000000000       0.0000000000000000    
   0.0000000000000000       0.0000000000000000    
   0.0000000000000000       0.0000000000000000    
   0.0000000000000000       0.0000000000000000    
   0.0000000000000000       0.0000000000000000    
   0.0000000000000000       0.0000000000000000    
   0.0000000000000000       0.0000000000000000    
   0.0000000000000000       0.0000000000000000    
   0.0000000000000000       0.0000000000000000    
   0.0000000000000000       0.0000000000000000    
   0.0000000000000000       0.0000000000000000    
   0.0000000000000000       0.0000000000000000    
  0.40853506769151160     -0.60502501171938528    
  0.68002995896626706      0.67846065007992701E-01
  0.31533483159181553E-05  0.37171040698930719E-05
  0.23595135257443838E-05 -0.39270714568492809E-06
 -0.19431889788086940E-06 -0.14136943483243166E-05
 -0.98718950789552368E-08  0.15924745504107437E-07
   0.0000000000000000       0.0000000000000000    
   0.0000000000000000       0.0000000000000000    
   0.0000000000000000       0.0000000000000000    
   0.0000000000000000       0.0000000000000000    
   0.0000000000000000       0.0000000000000000    
   0.0000000000000000       0.0000000000000000    
 -0.68189406516757500     -0.20943542708864518E-01
  0.32599285884578999      0.65178962211018077    
 -0.10469876681305739E-04  0.57707005577389717E-05
  0.88535003703174740E-07  0.12993418738596653E-05
  0.19008934852100090E-05  0.28022127381519322E-05
  0.58998273220293308E-01 -0.20801168601397761E-09
   1.0000000000000000       0.0000000000000000    
   0.0000000000000000       0.0000000000000000    
   0.0000000000000000       0.0000000000000000    
   0.0000000000000000       0.0000000000000000    
   0.0000000000000000       0.0000000000000000    
   0.0000000000000000       0.0000000000000000    
   0.0000000000000000       0.0000000000000000    
   0.0000000000000000       0.0000000000000000    
   0.0000000000000000       0.0000000000000000    
   0.0000000000000000       0.0000000000000000    
   0.0000000000000000       0.0000000000000000    
   0.0000000000000000       0.0000000000000000    
   0.0000000000000000       0.0000000000000000    
   1.0000000000000000       0.0000000000000000    
   0.0000000000000000       0.0000000000000000    
   0.0000000000000000       0.0000000000000000    
   0.0000000000000000       0.0000000000000000    
   0.0000000000000000       0.0000000000000000    
   0.0000000000000000       0.0000000000000000    
   0.0000000000000000       0.0000000000000000    
   0.0000000000000000       0.0000000000000000    
   0.0000000000000000       0.0000000000000000    
   0.0000000000000000       0.0000000000000000    
   0.0000000000000000       0.0000000000000000    
   0.0000000000000000       0.0000000000000000    
   0.0000000000000000       0.0000000000000000    
   1.0000000000000000       0.0000000000000000    
   0.0000000000000000       0.0000000000000000    
   0.0000000000000000       0.0000000000000000    
   0.0000000000000000       0.0000000000000000    
   0.0000000000000000       0.0000000000000000    
   0.0000000000000000       0.0000000000000000    
   0.0000000000000000       0.0000000000000000    
   0.0000000000000000       0.0000000000000000    
   0.0000000000000000       0.0000000000000000    
   0.0000000000000000       0.0000000000000000    
   0.0000000000000000       0.0000000000000000    
   0.0000000000000000       0.0000000000000000    
   0.0000000000000000       0.0000000000000000    
   1.0000000000000000       0.0000000000000000    
   0.0000000000000000       0.0000000000000000    
   0.0000000000000000       0.0000000000000000    
   0.0000000000000000       0.0000000000000000    
   0.0000000000000000       0.0000000000000000    
   0.0000000000000000       0.0000000000000000    
   0.0000000000000000       0.0000000000000000    
   0.0000000000000000       0.0000000000000000    
   0.0000000000000000       0.0000000000000000    
   0.0000000000000000       0.0000000000000000    
   0.0000000000000000       0.0000000000000000    
   0.0000000000000000       0.0000000000000000    
   0.0000000000000000       0.0000000000000000    
   1.0000000000000000       0.0000000000000000    
   0.0000000000000000       0.0000000000000000    
   0.0000000000000000       0.0000000000000000    
   0.0000000000000000       0.0000000000000000    
   0.0000000000000000       0.0000000000000000    
   0.0000000000000000       0.0000000000000000    
   0.0000000000000000       0.0000000000000000    
   0.0000000000000000       0.0000000000000000    
   0.0000000000000000       0.0000000000000000    
   0.0000000000000000       0.0000000000000000    
   0.0000000000000000       0.0000000000000000    
   0.0000000000000000       0.0000000000000000    
   0.0000000000000000       0.0000000000000000    
   1.0000000000000000       0.0000000000000000    
   0.0000000000000000       0.0000000000000000    
   0.0000000000000000       0.0000000000000000    
   0.0000000000000000       0.0000000000000000    
   0.0000000000000000       0.0000000000000000    
   0.0000000000000000       0.0000000000000000    
   0.0000000000000000       0.0000000000000000    
   0.0000000000000000       0.0000000000000000    
   0.0000000000000000       0.0000000000000000    
   0.0000000000000000       0.0000000000000000    
   0.0000000000000000       0.0000000000000000    
   0.0000000000000000       0.0000000000000000    
   0.0000000000000000       0.0000000000000000    
   1.0000000000000000       0.0000000000000000    
   0.0000000000000000       0.0000000000000000    
   0.0000000000000000       0.0000000000000000    
   0.0000000000000000       0.0000000000000000    
   0.0000000000000000       0.0000000000000000    
   0.0000000000000000       0.0000000000000000    
   0.0000000000000000       0.0000000000000000    
   0.0000000000000000       0.0000000000000000    
   0.0000000000000000       0.0000000000000000    
   0.0000000000000000       0.0000000000000000    
   0.0000000000000000       0.0000000000000000    
   0.0000000000000000       0.0000000000000000    
   0.0000000000000000       0.0000000000000000    
  0.81000320599644438      0.55782714300397906    
  0.23480821623886295E-03 -0.10046702329760164E-03
 -0.18030045810926212      0.14672702476917666E-01
  0.10128604521253096E-03 -0.41788956439835643E-04
  0.25333261475860084E-03   0.0000000000000000    
   1.0000000000000000       0.0000000000000000    
   0.0000000000000000       0.0000000000000000    
   0.0000000000000000       0.0000000000000000    
   0.0000000000000000       0.0000000000000000    
   0.0000000000000000       0.0000000000000000    
   0.0000000000000000       0.0000000000000000    
   0.0000000000000000       0.0000000000000000    
   0.0000000000000000       0.0000000000000000    
   0.0000000000000000       0.0000000000000000    
   0.0000000000000000       0.0000000000000000    
   0.0000000000000000       0.0000000000000000    
   0.0000000000000000       0.0000000000000000    
   0.0000000000000000       0.0000000000000000    
   1.0000000000000000       0.0000000000000000    
   0.0000000000000000       0.0000000000000000    
   0.0000000000000000       0.0000000000000000    
   0.0000000000000000       0.0000000000000000    
   0.0000000000000000       0.0000000000000000    
   0.0000000000000000       0.0000000000000000    
   0.0000000000000000       0.0000000000000000    
   0.0000000000000000       0.0000000000000000    
   0.0000000000000000       0.0000000000000000    
   0.0000000000000000       0.0000000000000000    
   0.0000000000000000       0.0000000000000000    
   0.0000000000000000       0.0000000000000000    
   0.0000000000000000       0.0000000000000000    
   1.0000000000000000       0.0000000000000000    
   0.0000000000000000       0.0000000000000000    
   0.0000000000000000       0.0000000000000000    
   0.0000000000000000       0.0000000000000000    
   0.0000000000000000       0.0000000000000000    
   0.0000000000000000       0.0000000000000000    
   0.0000000000000000       0.0000000000000000    
   0.0000000000000000       0.0000000000000000    
   0.0000000000000000       0.0000000000000000    
   0.0000000000000000       0.0000000000000000    
   0.0000000000000000       0.0000000000000000    
   0.0000000000000000       0.0000000000000000    
   0.0000000000000000       0.0000000000000000    
   1.0000000000000000       0.0000000000000000    
   0.0000000000000000       0.0000000000000000    
   0.0000000000000000       0.0000000000000000    
   0.0000000000000000       0.0000000000000000    
   0.0000000000000000       0.0000000000000000    
   0.0000000000000000       0.0000000000000000    
   0.0000000000000000       0.0000000000000000    
   0.0000000000000000       0.0000000000000000    
   0.0000000000000000       0.0000000000000000    
   0.0000000000000000       0.0000000000000000    
   0.0000000000000000       0.0000000000000000    
   0.0000000000000000       0.0000000000000000    
   0.0000000000000000       0.0000000000000000    
   1.0000000000000000       0.0000000000000000    
   0.0000000000000000       0.0000000000000000    
   0.0000000000000000       0.0000000000000000    
   0.0000000000000000       0.0000000000000000    
   0.0000000000000000       0.0000000000000000    
   0.0000000000000000       0.0000000000000000    
   0.0000000000000000       0.0000000000000000    
   0.0000000000000000       0.0000000000000000    
   0.0000000000000000       0.0000000000000000    
   0.0000000000000000       0.0000000000000000    
   0.0000000000000000       0.0000000000000000    
   0.0000000000000000       0.0000000000000000    
   0.0000000000000000       0.0000000000000000    
   1.0000000000000000       0.0000000000000000    
   0.0000000000000000       0.0000000000000000    
   0.0000000000000000       0.0000000000000000    
   0.0000000000000000       0.0000000000000000    
   0.0000000000000000       0.0000000000000000    
   0.0000000000000000       0.0000000000000000    
   0.0000000000000000       0.0000000000000000    
   0.0000000000000000       0.0000000000000000    
   0.0000000000000000       0.0000000000000000    
   0.0000000000000000       0.0000000000000000    
   0.0000000000000000       0.0000000000000000    
   0.0000000000000000       0.0000000000000000    
   0.0000000000000000       0.0000000000000000    
   1.0000000000000000       0.0000000000000000    
   0.0000000000000000       0.0000000000000000    
   0.0000000000000000       0.0000000000000000    
   0.0000000000000000       0.0000000000000000    
   0.0000000000000000       0.0000000000000000    
   0.0000000000000000       0.0000000000000000    
   0.0000000000000000       0.0000000000000000    
   0.0000000000000000       0.0000000000000000    
   0.0000000000000000       0.0000000000000000    
   0.0000000000000000       0.0000000000000000    
   0.0000000000000000       0.0000000000000000    
   0.0000000000000000       0.0000000000000000    
   0.0000000000000000       0.0000000000000000    
   1.0000000000000000       0.0000000000000000    
   0.0000000000000000       0.0000000000000000    
   0.0000000000000000       0.0000000000000000    
   0.0000000000000000       0.0000000000000000    
   0.0000000000000000       0.0000000000000000    
   1.0000000000000000       0.0000000000000000    
   0.0000000000000000       0.0000000000000000    
   0.0000000000000000       0.0000000000000000    
   0.0000000000000000       0.0000000000000000    
   0.0000000000000000       0.0000000000000000    
   0.0000000000000000       0.0000000000000000    
   0.0000000000000000       0.0000000000000000    
   0.0000000000000000       0.0000000000000000    
   0.0000000000000000       0.0000000000000000    
   0.0000000000000000       0.0000000000000000    
   0.0000000000000000       0.0000000000000000    
   0.0000000000000000       0.0000000000000000    
   0.0000000000000000       0.0000000000000000    
   1.0000000000000000       0.0000000000000000    
   0.0000000000000000       0.0000000000000000    
   0.0000000000000000       0.0000000000000000    
   0.0000000000000000       0.0000000000000000    
   0.0000000000000000       0.0000000000000000    
   0.0000000000000000       0.0000000000000000    
   0.0000000000000000       0.0000000000000000    
   0.0000000000000000       0.0000000000000000    
   0.0000000000000000       0.0000000000000000    
   0.0000000000000000       0.0000000000000000    
   0.0000000000000000       0.0000000000000000    
   0.0000000000000000       0.0000000000000000    
   0.0000000000000000       0.0000000000000000    
   1.0000000000000000       0.0000000000000000    
   0.0000000000000000       0.0000000000000000    
   0.0000000000000000       0.0000000000000000    
   0.0000000000000000       0.0000000000000000    
   0.0000000000000000       0.0000000000000000    
   0.0000000000000000       0.0000000000000000    
   0.0000000000000000       0.0000000000000000    
   0.0000000000000000       0.0000000000000000    
   0.0000000000000000       0.0000000000000000    
   0.0000000000000000       0.0000000000000000    
   0.0000000000000000       0.0000000000000000    
   0.0000000000000000       0.0000000000000000    
   0.0000000000000000       0.0000000000000000    
   1.0000000000000000       0.0000000000000000    
   0.0000000000000000       0.0000000000000000    
   0.0000000000000000       0.0000000000000000    
   0.0000000000000000       0.0000000000000000    
   0.0000000000000000       0.0000000000000000    
   0.0000000000000000       0.0000000000000000    
   0.0000000000000000       0.0000000000000000    
   0.0000000000000000       0.0000000000000000    
   0.0000000000000000       0.0000000000000000    
   0.0000000000000000       0.0000000000000000    
   0.0000000000000000       0.0000000000000000    
   0.0000000000000000       0.0000000000000000    
   0.0000000000000000       0.0000000000000000    
   1.0000000000000000       0.0000000000000000    
   0.0000000000000000       0.0000000000000000    
   0.0000000000000000       0.0000000000000000    
   0.0000000000000000       0.0000000000000000    
   0.0000000000000000       0.0000000000000000    
   0.0000000000000000       0.0000000000000000    
   0.0000000000000000       0.0000000000000000    
   0.0000000000000000       0.0000000000000000    
   0.0000000000000000       0.0000000000000000    
   0.0000000000000000       0.0000000000000000    
   0.0000000000000000       0.0000000000000000    
   0.0000000000000000       0.0000000000000000    
   0.0000000000000000       0.0000000000000000    
   1.0000000000000000       0.0000000000000000    
   0.0000000000000000       0.0000000000000000    
   0.0000000000000000       0.0000000000000000    
   0.0000000000000000       0.0000000000000000    
   0.0000000000000000       0.0000000000000000    
   0.0000000000000000       0.0000000000000000    
   0.0000000000000000       0.0000000000000000    
   0.0000000000000000       0.0000000000000000    
   0.0000000000000000       0.0000000000000000    
   0.0000000000000000       0.0000000000000000    
   0.0000000000000000       0.0000000000000000    
   0.0000000000000000       0.0000000000000000    
   0.0000000000000000       0.0000000000000000    
   1.0000000000000000       0.0000000000000000    
   0.0000000000000000       0.0000000000000000    
   0.0000000000000000       0.0000000000000000    
   0.0000000000000000       0.0000000000000000    
   0.0000000000000000       0.0000000000000000    
   0.0000000000000000       0.0000000000000000    
   0.0000000000000000       0.0000000000000000    
   0.0000000000000000       0.0000000000000000    
   0.0000000000000000       0.0000000000000000    
   0.0000000000000000       0.0000000000000000    
   0.0000000000000000       0.0000000000000000    
   0.0000000000000000       0.0000000000000000    
   0.0000000000000000       0.0000000000000000    
  0.64198000161620516     -0.63184455312854104    
  0.37986185914027987     -0.12644324407061724    
  0.16686316571717691E-03  0.76220402695815082E-03
 -0.57993748080747107E-04  0.65537297117677766E-03
  0.16837508880692253       0.0000000000000000    
   1.0000000000000000       0.0000000000000000    
   0.0000000000000000       0.0000000000000000    
   0.0000000000000000       0.0000000000000000    
   0.0000000000000000       0.0000000000000000    
   0.0000000000000000       0.0000000000000000    
   0.0000000000000000       0.0000000000000000    
   0.0000000000000000       0.0000000000000000    
   0.0000000000000000       0.0000000000000000    
   0.0000000000000000       0.0000000000000000    
   0.0000000000000000       0.0000000000000000    
   0.0000000000000000       0.0000000000000000    
   0.0000000000000000       0.0000000000000000    
   0.0000000000000000       0.0000000000000000    
   1.0000000000000000       0.0000000000000000    
   0.0000000000000000       0.0000000000000000    
   0.0000000000000000       0.0000000000000000    
   0.0000000000000000       0.0000000000000000    
   0.0000000000000000       0.0000000000000000    
   0.0000000000000000       0.0000000000000000    
   0.0000000000000000       0.0000000000000000    
   0.0000000000000000       0.0000000000000000    
   0.0000000000000000       0.0000000000000000    
   0.0000000000000000       0.0000000000000000    
   0.0000000000000000       0.0000000000000000    
   0.0000000000000000       0.0000000000000000    
   0.0000000000000000       0.0000000000000000    
   1.0000000000000000       0.0000000000000000    
   0.0000000000000000       0.0000000000000000    
   0.0000000000000000       0.0000000000000000    
   0.0000000000000000       0.0000000000000000    
   0.0000000000000000       0.0000000000000000    
   0.0000000000000000       0.0000000000000000    
   0.0000000000000000       0.0000000000000000    
   0.0000000000000000       0.0000000000000000    
   0.0000000000000000       0.0000000000000000    
   0.0000000000000000       0.0000000000000000    
   0.0000000000000000       0.0000000000000000    
   0.0000000000000000       0.0000000000000000    
   0.0000000000000000       0.0000000000000000    
   1.0000000000000000       0.0000000000000000    
   0.0000000000000000       0.0000000000000000    
   0.0000000000000000       0.0000000000000000    
   0.0000000000000000       0.0000000000000000    
   0.0000000000000000       0.0000000000000000    
   0.0000000000000000       0.0000000000000000    
   0.0000000000000000       0.0000000000000000    
   0.0000000000000000       0.0000000000000000    
   0.0000000000000000       0.0000000000000000    
   0.0000000000000000       0.0000000000000000    
   0.0000000000000000       0.0000000000000000    
   0.0000000000000000       0.0000000000000000    
   0.0000000000000000       0.0000000000000000    
   1.0000000000000000       0.0000000000000000    
   0.0000000000000000       0.0000000000000000    
   0.0000000000000000       0.0000000000000000    
   0.0000000000000000       0.0000000000000000    
   0.0000000000000000       0.0000000000000000    
   0.0000000000000000       0.0000000000000000    
   0.0000000000000000       0.0000000000000000    
   0.0000000000000000       0.0000000000000000    
   0.0000000000000000       0.0000000000000000    
   0.0000000000000000       0.0000000000000000    
   0.0000000000000000       0.0000000000000000    
   0.0000000000000000       0.0000000000000000    
   0.0000000000000000       0.0000000000000000    
   1.0000000000000000       0.0000000000000000    
   0.0000000000000000       0.0000000000000000    
   0.0000000000000000       0.0000000000000000    
   0.0000000000000000       0.0000000000000000    
   0.0000000000000000       0.0000000000000000    
   0.0000000000000000       0.0000000000000000    
   0.0000000000000000       0.0000000000000000    
   0.0000000000000000       0.0000000000000000    
   0.0000000000000000       0.0000000000000000    
   0.0000000000000000       0.0000000000000000    
   0.0000000000000000       0.0000000000000000    
   0.0000000000000000       0.0000000000000000    
   0.0000000000000000       0.0000000000000000    
   1.0000000000000000       0.0000000000000000    
   0.0000000000000000       0.0000000000000000    
   0.0000000000000000       0.0000000000000000    
   0.0000000000000000       0.0000000000000000    
   0.0000000000000000       0.0000000000000000    
   0.0000000000000000       0.0000000000000000    
   0.0000000000000000       0.0000000000000000    
   0.0000000000000000       0.0000000000000000    
   0.0000000000000000       0.0000000000000000    
   0.0000000000000000       0.0000000000000000    
   0.0000000000000000       0.0000000000000000    
   0.0000000000000000       0.0000000000000000    
   0.0000000000000000       0.0000000000000000    
 -0.41215013609595214      0.89297746544851098    
  0.15394456449955332E-03  0.22967976389371363E-03
  0.40424432563399212E-02 -0.18085080640703446    
  0.10487743677261939E-03 -0.21978796462910342E-04
 -0.26087855328843425E-03   0.0000000000000000    
   1.0000000000000000       0.0000000000000000    
   0.0000000000000000       0.0000000000000000    
   0.0000000000000000       0.0000000000000000    
   0.0000000000000000       0.0000000000000000    
   0.0000000000000000       0.0000000000000000    
   0.0000000000000000       0.0000000000000000    
   0.0000000000000000       0.0000000000000000    
   0.0000000000000000       0.0000000000000000    
   0.0000000000000000       0.0000000000000000    
   0.0000000000000000       0.0000000000000000    
   0.0000000000000000       0.0000000000000000    
   0.0000000000000000       0.0000000000000000    
   0.0000000000000000       0.0000000000000000    
   1.0000000000000000       0.0000000000000000    
   0.0000000000000000       0.0000000000000000    
   0.0000000000000000       0.0000000000000000    
   0.0000000000000000       0.0000000000000000    
   0.0000000000000000       0.0000000000000000    
   0.0000000000000000       0.0000000000000000    
   0.0000000000000000       0.0000000000000000    
   0.0000000000000000       0.0000000000000000    
   0.0000000000000000       0.0000000000000000    
   0.0000000000000000       0.0000000000000000    
   0.0000000000000000       0.0000000000000000    
   0.0000000000000000       0.0000000000000000    
   0.0000000000000000       0.0000000000000000    
   1.0000000000000000       0.0000000000000000    
   0.0000000000000000       0.0000000000000000    
   0.0000000000000000       0.0000000000000000    
   0.0000000000000000       0.0000000000000000    
   0.0000000000000000       0.0000000000000000    
   0.0000000000000000       0.0000000000000000    
   0.0000000000000000       0.0000000000000000    
   0.0000000000000000       0.0000000000000000    
   0.0000000000000000       0.0000000000000000    
   0.0000000000000000       0.0000000000000000    
   0.0000000000000000       0.0000000000000000    
   0.0000000000000000       0.0000000000000000    
   0.0000000000000000       0.0000000000000000    
   1.0000000000000000       0.0000000000000000    
   0.0000000000000000       0.0000000000000000    
   0.0000000000000000       0.0000000000000000    
   0.0000000000000000       0.0000000000000000    
   0.0000000000000000       0.0000000000000000    
   0.0000000000000000       0.0000000000000000    
   0.0000000000000000       0.0000000000000000    
   0.0000000000000000       0.0000000000000000    
   0.0000000000000000       0.0000000000000000    
   0.0000000000000000       0.0000000000000000    
   0.0000000000000000       0.0000000000000000    
   0.0000000000000000       0.0000000000000000    
   0.0000000000000000       0.0000000000000000    
   1.0000000000000000       0.0000000000000000    
   0.0000000000000000       0.0000000000000000    
   0.0000000000000000       0.0000000000000000    
   0.0000000000000000       0.0000000000000000    
   0.0000000000000000       0.0000000000000000    
   0.0000000000000000       0.0000000000000000    
   0.0000000000000000       0.0000000000000000    
   0.0000000000000000       0.0000000000000000    
   0.0000000000000000       0.0000000000000000    
   0.0000000000000000       0.0000000000000000    
   0.0000000000000000       0.0000000000000000    
   0.0000000000000000       0.0000000000000000    
   0.0000000000000000       0.0000000000000000    
   1.0000000000000000       0.0000000000000000    
   0.0000000000000000       0.0000000000000000    
   0.0000000000000000       0.0000000000000000    
   0.0000000000000000       0.0000000000000000    
   0.0000000000000000       0.0000000000000000    
   0.0000000000000000       0.0000000000000000    
   0.0000000000000000       0.0000000000000000    
   0.0000000000000000       0.0000000000000000    
   0.0000000000000000       0.0000000000000000    
   0.0000000000000000       0.0000000000000000    
   0.0000000000000000       0.0000000000000000    
   0.0000000000000000       0.0000000000000000    
   0.0000000000000000       0.0000000000000000    
 -0.16627899027831636     -0.17433366614545459    
 -0.96795852989009179     -0.33620396617693407E-01
  0.36026257190853511E-05  0.15012192260470180E-04
 -0.43241579078705600E-06 -0.55255163898073536E-05
  0.52702874752097121E-02  0.13936061791221945E-01
  0.60440367482260463E-01 -0.31615733133722158E-02
   0.0000000000000000       0.0000000000000000    
   0.0000000000000000       0.0000000000000000    
   0.0000000000000000       0.0000000000000000    
   0.0000000000000000       0.0000000000000000    
   0.0000000000000000       0.0000000000000000    
   0.0000000000000000       0.0000000000000000    
 -0.51921031700122178     -0.81750490987446578    
  0.23451523637644500      0.55066975033448151E-01
  0.25856060973646377E-04  0.15325386960564733E-04
 -0.24208287069671531E-05  0.56209201914366361E-06
  0.11363014608843152E-02  0.61986880648124867E-01
 -0.14620736484973043E-01 -0.43783353183400224E-02
   1.0000000000000000       0.0000000000000000    
   0.0000000000000000       0.0000000000000000    
   0.0000000000000000       0.0000000000000000    
   0.0000000000000000       0.0000000000000000    
   0.0000000000000000       0.0000000000000000    
   0.0000000000000000       0.0000000000000000    
   0.0000000000000000       0.0000000000000000    
   0.0000000000000000       0.0000000000000000    
   0.0000000000000000       0.0000000000000000    
   0.0000000000000000       0.0000000000000000    
   0.0000000000000000       0.0000000000000000    
   0.0000000000000000       0.0000000000000000    
   0.0000000000000000       0.0000000000000000    
   1.0000000000000000       0.0000000000000000    
   0.0000000000000000       0.0000000000000000    
   0.0000000000000000       0.0000000000000000    
   0.0000000000000000       0.0000000000000000    
   0.0000000000000000       0.0000000000000000    
   0.0000000000000000       0.0000000000000000    
   0.0000000000000000       0.0000000000000000    
   0.0000000000000000       0.0000000000000000    
   0.0000000000000000       0.0000000000000000    
   0.0000000000000000       0.0000000000000000    
   0.0000000000000000       0.0000000000000000    
   0.0000000000000000       0.0000000000000000    
   0.0000000000000000       0.0000000000000000    
   1.0000000000000000       0.0000000000000000    
   0.0000000000000000       0.0000000000000000    
   0.0000000000000000       0.0000000000000000    
   0.0000000000000000       0.0000000000000000    
   0.0000000000000000       0.0000000000000000    
   0.0000000000000000       0.0000000000000000    
   0.0000000000000000       0.0000000000000000    
   0.0000000000000000       0.0000000000000000    
   0.0000000000000000       0.0000000000000000    
   0.0000000000000000       0.0000000000000000    
   0.0000000000000000       0.0000000000000000    
   0.0000000000000000       0.0000000000000000    
   0.0000000000000000       0.0000000000000000    
   1.0000000000000000       0.0000000000000000    
   0.0000000000000000       0.0000000000000000    
   0.0000000000000000       0.0000000000000000    
   0.0000000000000000       0.0000000000000000    
   0.0000000000000000       0.0000000000000000    
   0.0000000000000000       0.0000000000000000    
   0.0000000000000000       0.0000000000000000    
   0.0000000000000000       0.0000000000000000    
   0.0000000000000000       0.0000000000000000    
   0.0000000000000000       0.0000000000000000    
   0.0000000000000000       0.0000000000000000    
   0.0000000000000000       0.0000000000000000    
   0.0000000000000000       0.0000000000000000    
   1.0000000000000000       0.0000000000000000    
   0.0000000000000000       0.0000000000000000    
   0.0000000000000000       0.0000000000000000    
   0.0000000000000000       0.0000000000000000    
   0.0000000000000000       0.0000000000000000    
   0.0000000000000000       0.0000000000000000    
   0.0000000000000000       0.0000000000000000    
   0.0000000000000000       0.0000000000000000    
   0.0000000000000000       0.0000000000000000    
   0.0000000000000000       0.0000000000000000    
   0.0000000000000000       0.0000000000000000    
   0.0000000000000000       0.0000000000000000    
   0.0000000000000000       0.0000000000000000    
   1.0000000000000000       0.0000000000000000    
   0.0000000000000000       0.0000000000000000    
   0.0000000000000000       0.0000000000000000    
   0.0000000000000000       0.0000000000000000    
   0.0000000000000000       0.0000000000000000    
   0.0000000000000000       0.0000000000000000    
   0.0000000000000000       0.0000000000000000    
   0.0000000000000000       0.0000000000000000    
   0.0000000000000000       0.0000000000000000    
   0.0000000000000000       0.0000000000000000    
   0.0000000000000000       0.0000000000000000    
   0.0000000000000000       0.0000000000000000    
   0.0000000000000000       0.0000000000000000    
   1.0000000000000000       0.0000000000000000    
   0.0000000000000000       0.0000000000000000    
   0.0000000000000000       0.0000000000000000    
   0.0000000000000000       0.0000000000000000    
   0.0000000000000000       0.0000000000000000    
   0.0000000000000000       0.0000000000000000    
   0.0000000000000000       0.0000000000000000    
   0.0000000000000000       0.0000000000000000    
   0.0000000000000000       0.0000000000000000    
   0.0000000000000000       0.0000000000000000    
   0.0000000000000000       0.0000000000000000    
   0.0000000000000000       0.0000000000000000    
   0.0000000000000000       0.0000000000000000    
  0.14587655601861033      0.97280154499137284    
 -0.32403801563358494E-02 -0.20390447172708250E-03
  0.40422861445559129E-01 -0.17527496844087087    
  0.14093903514621111E-02  0.74254872007577688E-03
  0.29635750026189632E-02   0.0000000000000000    
   1.0000000000000000       0.0000000000000000    
   0.0000000000000000       0.0000000000000000    
   0.0000000000000000       0.0000000000000000    
   0.0000000000000000       0.0000000000000000    
   0.0000000000000000       0.0000000000000000    
   0.0000000000000000       0.0000000000000000    
   0.0000000000000000       0.0000000000000000    
   0.0000000000000000       0.0000000000000000    
   0.0000000000000000       0.0000000000000000    
   0.0000000000000000       0.0000000000000000    
   0.0000000000000000       0.0000000000000000    
   0.0000000000000000       0.0000000000000000    
   0.0000000000000000       0.0000000000000000    
   1.0000000000000000       0.0000000000000000    
   0.0000000000000000       0.0000000000000000    
   0.0000000000000000       0.0000000000000000    
   0.0000000000000000       0.0000000000000000    
   0.0000000000000000       0.0000000000000000    
   0.0000000000000000       0.0000000000000000    
   0.0000000000000000       0.0000000000000000    
   0.0000000000000000       0.0000000000000000    
   0.0000000000000000       0.0000000000000000    
   0.0000000000000000       0.0000000000000000    
   0.0000000000000000       0.0000000000000000    
   0.0000000000000000       0.0000000000000000    
   0.0000000000000000       0.0000000000000000    
   1.0000000000000000       0.0000000000000000    
   0.0000000000000000       0.0000000000000000    
   0.0000000000000000       0.0000000000000000    
   0.0000000000000000       0.0000000000000000    
   0.0000000000000000       0.0000000000000000    
   0.0000000000000000       0.0000000000000000    
   0.0000000000000000       0.0000000000000000    
   0.0000000000000000       0.0000000000000000    
   0.0000000000000000       0.0000000000000000    
   0.0000000000000000       0.0000000000000000    
   0.0000000000000000       0.0000000000000000    
   0.0000000000000000       0.0000000000000000    
   0.0000000000000000       0.0000000000000000    
   1.0000000000000000       0.0000000000000000    
   0.0000000000000000       0.0000000000000000    
   0.0000000000000000       0.0000000000000000    
   0.0000000000000000       0.0000000000000000    
   0.0000000000000000       0.0000000000000000    
   0.0000000000000000       0.0000000000000000    
   0.0000000000000000       0.0000000000000000    
   0.0000000000000000       0.0000000000000000    
   0.0000000000000000       0.0000000000000000    
   0.0000000000000000       0.0000000000000000    
   0.0000000000000000       0.0000000000000000    
   0.0000000000000000       0.0000000000000000    
   0.0000000000000000       0.0000000000000000    
   1.0000000000000000       0.0000000000000000    
   0.0000000000000000       0.0000000000000000    
   0.0000000000000000       0.0000000000000000    
   0.0000000000000000       0.0000000000000000    
   0.0000000000000000       0.0000000000000000    
   0.0000000000000000       0.0000000000000000    
   0.0000000000000000       0.0000000000000000    
   0.0000000000000000       0.0000000000000000    
   0.0000000000000000       0.0000000000000000    
   0.0000000000000000       0.0000000000000000    
   0.0000000000000000       0.0000000000000000    
   0.0000000000000000       0.0000000000000000    
   0.0000000000000000       0.0000000000000000    
   1.0000000000000000       0.0000000000000000    
   0.0000000000000000       0.0000000000000000    
   0.0000000000000000       0.0000000000000000    
   0.0000000000000000       0.0000000000000000    
   0.0000000000000000       0.0000000000000000    
   0.0000000000000000       0.0000000000000000    
   0.0000000000000000       0.0000000000000000    
   0.0000000000000000       0.0000000000000000    
   0.0000000000000000       0.0000000000000000    
   0.0000000000000000       0.0000000000000000    
   0.0000000000000000       0.0000000000000000    
   0.0000000000000000       0.0000000000000000    
   0.0000000000000000       0.0000000000000000    
   1.0000000000000000       0.0000000000000000    
   0.0000000000000000       0.0000000000000000    
   0.0000000000000000       0.0000000000000000    
   0.0000000000000000       0.0000000000000000    
   0.0000000000000000       0.0000000000000000    
   0.0000000000000000       0.0000000000000000    
   0.0000000000000000       0.0000000000000000    
   0.0000000000000000       0.0000000000000000    
   0.0000000000000000       0.0000000000000000    
   0.0000000000000000       0.0000000000000000    
   0.0000000000000000       0.0000000000000000    
   0.0000000000000000       0.0000000000000000    
   0.0000000000000000       0.0000000000000000    
   1.0000000000000000       0.0000000000000000    
   0.0000000000000000       0.0000000000000000    
   0.0000000000000000       0.0000000000000000    
   0.0000000000000000       0.0000000000000000    
   0.0000000000000000       0.0000000000000000    
   1.0000000000000000       0.0000000000000000    
   0.0000000000000000       0.0000000000000000    
   0.0000000000000000       0.0000000000000000    
   0.0000000000000000       0.0000000000000000    
   0.0000000000000000       0.0000000000000000    
   0.0000000000000000       0.0000000000000000    
   0.0000000000000000       0.0000000000000000    
   0.0000000000000000       0.0000000000000000    
   0.0000000000000000       0.0000000000000000    
   0.0000000000000000       0.0000000000000000    
   0.0000000000000000       0.0000000000000000    
   0.0000000000000000       0.0000000000000000    
   0.0000000000000000       0.0000000000000000    
   1.0000000000000000       0.0000000000000000    
   0.0000000000000000       0.0000000000000000    
   0.0000000000000000       0.0000000000000000    
   0.0000000000000000       0.0000000000000000    
   0.0000000000000000       0.0000000000000000    
   0.0000000000000000       0.0000000000000000    
   0.0000000000000000       0.0000000000000000    
   0.0000000000000000       0.0000000000000000    
   0.0000000000000000       0.0000000000000000    
   0.0000000000000000       0.0000000000000000    
   0.0000000000000000       0.0000000000000000    
   0.0000000000000000       0.0000000000000000    
   0.0000000000000000       0.0000000000000000    
   1.0000000000000000       0.0000000000000000    
   0.0000000000000000       0.0000000000000000    
   0.0000000000000000       0.0000000000000000    
   0.0000000000000000       0.0000000000000000    
   0.0000000000000000       0.0000000000000000    
   0.0000000000000000       0.0000000000000000    
   0.0000000000000000       0.0000000000000000    
   0.0000000000000000       0.0000000000000000    
   0.0000000000000000       0.0000000000000000    
   0.0000000000000000       0.0000000000000000    
   0.0000000000000000       0.0000000000000000    
   0.0000000000000000       0.0000000000000000    
   0.0000000000000000       0.0000000000000000    
   1.0000000000000000       0.0000000000000000    
   0.0000000000000000       0.0000000000000000    
   0.0000000000000000       0.0000000000000000    
   0.0000000000000000       0.0000000000000000    
   0.0000000000000000       0.0000000000000000    
   0.0000000000000000       0.0000000000000000    
   0.0000000000000000       0.0000000000000000    
   0.0000000000000000       0.0000000000000000    
   0.0000000000000000       0.0000000000000000    
   0.0000000000000000       0.0000000000000000    
   0.0000000000000000       0.0000000000000000    
   0.0000000000000000       0.0000000000000000    
   0.0000000000000000       0.0000000000000000    
   1.0000000000000000       0.0000000000000000    
   0.0000000000000000       0.0000000000000000    
   0.0000000000000000       0.0000000000000000    
   0.0000000000000000       0.0000000000000000    
   0.0000000000000000       0.0000000000000000    
   0.0000000000000000       0.0000000000000000    
   0.0000000000000000       0.0000000000000000    
   0.0000000000000000       0.0000000000000000    
   0.0000000000000000       0.0000000000000000    
   0.0000000000000000       0.0000000000000000    
   0.0000000000000000       0.0000000000000000    
   0.0000000000000000       0.0000000000000000    
   0.0000000000000000       0.0000000000000000    
   1.0000000000000000       0.0000000000000000    
   0.0000000000000000       0.0000000000000000    
   0.0000000000000000       0.0000000000000000    
   0.0000000000000000       0.0000000000000000    
   0.0000000000000000       0.0000000000000000    
   0.0000000000000000       0.0000000000000000    
   0.0000000000000000       0.0000000000000000    
   0.0000000000000000       0.0000000000000000    
   0.0000000000000000       0.0000000000000000    
   0.0000000000000000       0.0000000000000000    
   0.0000000000000000       0.0000000000000000    
   0.0000000000000000       0.0000000000000000    
   0.0000000000000000       0.0000000000000000    
   1.0000000000000000       0.0000000000000000    
   0.0000000000000000       0.0000000000000000    
   0.0000000000000000       0.0000000000000000    
   0.0000000000000000       0.0000000000000000    
   0.0000000000000000       0.0000000000000000    
   0.0000000000000000       0.0000000000000000    
   0.0000000000000000       0.0000000000000000    
   0.0000000000000000       0.0000000000000000    
   0.0000000000000000       0.0000000000000000    
   0.0000000000000000       0.0000000000000000    
   0.0000000000000000       0.0000000000000000    
   0.0000000000000000       0.0000000000000000    
   0.0000000000000000       0.0000000000000000    
   1.0000000000000000       0.0000000000000000    
   0.0000000000000000       0.0000000000000000    
   0.0000000000000000       0.0000000000000000    
   0.0000000000000000       0.0000000000000000    
   0.0000000000000000       0.0000000000000000    
   1.0000000000000000       0.0000000000000000    
   0.0000000000000000       0.0000000000000000    
   0.0000000000000000       0.0000000000000000    
   0.0000000000000000       0.0000000000000000    
   0.0000000000000000       0.0000000000000000    
   0.0000000000000000       0.0000000000000000    
   0.0000000000000000       0.0000000000000000    
   0.0000000000000000       0.0000000000000000    
   0.0000000000000000       0.0000000000000000    
   0.0000000000000000       0.0000000000000000    
   0.0000000000000000       0.0000000000000000    
   0.0000000000000000       0.0000000000000000    
   0.0000000000000000       0.0000000000000000    
   1.0000000000000000       0.0000000000000000    
   0.0000000000000000       0.0000000000000000    
   0.0000000000000000       0.0000000000000000    
   0.0000000000000000       0.0000000000000000    
   0.0000000000000000       0.0000000000000000    
   0.0000000000000000       0.0000000000000000    
   0.0000000000000000       0.0000000000000000    
   0.0000000000000000       0.0000000000000000    
   0.0000000000000000       0.0000000000000000    
   0.0000000000000000       0.0000000000000000    
   0.0000000000000000       0.0000000000000000    
   0.0000000000000000       0.0000000000000000    
   0.0000000000000000       0.0000000000000000    
   1.0000000000000000       0.0000000000000000    
   0.0000000000000000       0.0000000000000000    
   0.0000000000000000       0.0000000000000000    
   0.0000000000000000       0.0000000000000000    
   0.0000000000000000       0.0000000000000000    
   0.0000000000000000       0.0000000000000000    
   0.0000000000000000       0.0000000000000000    
   0.0000000000000000       0.0000000000000000    
   0.0000000000000000       0.0000000000000000    
   0.0000000000000000       0.0000000000000000    
   0.0000000000000000       0.0000000000000000    
   0.0000000000000000       0.0000000000000000    
   0.0000000000000000       0.0000000000000000    
   1.0000000000000000       0.0000000000000000    
   0.0000000000000000       0.0000000000000000    
   0.0000000000000000       0.0000000000000000    
   0.0000000000000000       0.0000000000000000    
   0.0000000000000000       0.0000000000000000    
   0.0000000000000000       0.0000000000000000    
   0.0000000000000000       0.0000000000000000    
   0.0000000000000000       0.0000000000000000    
   0.0000000000000000       0.0000000000000000    
   0.0000000000000000       0.0000000000000000    
   0.0000000000000000       0.0000000000000000    
   0.0000000000000000       0.0000000000000000    
   0.0000000000000000       0.0000000000000000    
   1.0000000000000000       0.0000000000000000    
   0.0000000000000000       0.0000000000000000    
   0.0000000000000000       0.0000000000000000    
   0.0000000000000000       0.0000000000000000    
   0.0000000000000000       0.0000000000000000    
   0.0000000000000000       0.0000000000000000    
   0.0000000000000000       0.0000000000000000    
   0.0000000000000000       0.0000000000000000    
   0.0000000000000000       0.0000000000000000    
   0.0000000000000000       0.0000000000000000    
   0.0000000000000000       0.0000000000000000    
   0.0000000000000000       0.0000000000000000    
   0.0000000000000000       0.0000000000000000    
   1.0000000000000000       0.0000000000000000    
   0.0000000000000000       0.0000000000000000    
   0.0000000000000000       0.0000000000000000    
   0.0000000000000000       0.0000000000000000    
   0.0000000000000000       0.0000000000000000    
   0.0000000000000000       0.0000000000000000    
   0.0000000000000000       0.0000000000000000    
   0.0000000000000000       0.0000000000000000    
   0.0000000000000000       0.0000000000000000    
   0.0000000000000000       0.0000000000000000    
   0.0000000000000000       0.0000000000000000    
   0.0000000000000000       0.0000000000000000    
   0.0000000000000000       0.0000000000000000    
   1.0000000000000000       0.0000000000000000    
   0.0000000000000000       0.0000000000000000    
   0.0000000000000000       0.0000000000000000    
   0.0000000000000000       0.0000000000000000    
   0.0000000000000000       0.0000000000000000    
   0.0000000000000000       0.0000000000000000    
[...]
  0.34834762352927852E-01 -0.44707997325318195E-01
  0.85038024733985129      0.44618930276438684    
 -0.28500859024324119E-01  0.26678213137082369E-01
 -0.33165041639987861E-01  0.81735097830360981E-01
 -0.24514486610708812E-01 -0.23135642035028757E-02
 -0.32155616126969787E-01 -0.12521468377904665E-01
  0.14867413144554122E-02  0.32208207076787503E-01
 -0.69640035654587165E-01 -0.17231720794813648E-01
  0.35118408657707434E-01 -0.44739591700093145E-01
 -0.28868423993991730E-01  0.26492546188123148E-01
  0.85020364850742958      0.44646559254436824    
 -0.33090992971191682E-01  0.81700220393162451E-01
  0.16822525057996656E-02  0.32337829983802031E-01
 -0.32247271183903622E-01 -0.12760617970881429E-01
 -0.24561330247947509E-01 -0.23076492431175787E-02
 -0.69640234412591123E-01 -0.17143042593743801E-01
  0.71828433042812945E-01 -0.42160828210811026E-01
 -0.12080290728280905E-01  0.44447244343374367E-01
 -0.12119269995352013E-01  0.44314272183037934E-01
  0.80638426147875997      0.42632881960060814    
 -0.34012972559389926E-01  0.25194438319576393E-01
  0.28036304688633544E-01 -0.65652120943626227E-01
 -0.34040205766779748E-01  0.24971645127543293E-01
  0.14523730577862220E-01 -0.13368327129977415E-01
  0.83336500098265195E-01  0.15939205045371510E-01
 -0.41820985522014282E-02 -0.26023425238846886E-01
  0.34322891499498374E-01 -0.40852273240337932E-02
 -0.59451384358666329E-01 -0.19582161703676014E-01
  0.89656728684778830     -0.99026378844039267E-01
  0.34011414501740944E-01 -0.14743349497906827    
 -0.24252612963749455E-01 -0.76674858002786237E-02
 -0.29588084970164182E-01 -0.66838436462292705E-01
 -0.43478500403191948E-01 -0.19504757406238037E-01
 -0.43361972274659558E-02 -0.20054201868165134E-01
 -0.41865395976263819E-02 -0.20221466272590020E-01
  0.15625426507596712E-01  0.65552482615514523E-01
 -0.19888656237251126E-02 -0.78281078798201453E-01
  0.91557655473141930     -0.69345996954867761E-01
 -0.19104857197716897E-02 -0.77992830037543162E-01
 -0.56844692543433453E-01 -0.86559346811734023E-01
  0.82986524624826863E-01  0.15894437911824776E-01
  0.34564773862419781E-01 -0.39761639498820216E-02
 -0.41040790666791718E-02 -0.26005923906741953E-01
 -0.59359856127468275E-01 -0.19727370959182641E-01
 -0.24601106461924663E-01 -0.76237906074745655E-02
  0.33941326507618448E-01 -0.14710586433849987    
  0.89656757342616411     -0.99342819217984893E-01
 -0.29600519846868432E-01 -0.66816669876683207E-01
  0.54195082056863221E-01  0.44504090780392580E-01
  0.42580516796525927E-01 -0.23592339266087944E-01
  0.42533886637597641E-01 -0.23588412469999442E-01
 -0.73847331703463762E-01  0.18104823288623662E-01
 -0.57437318060041501E-01 -0.31200074368535433E-01
  0.43380321519727753E-01 -0.13155022259722379    
 -0.57428740780738910E-01 -0.31117225273308329E-01
  0.84165688918964932      0.33613459564877807    
  0.85012354688912517      0.44652949693617455    
  0.34971247590048812E-01 -0.44607513617589099E-01
 -0.28670663987197628E-01  0.26242844908277746E-01
 -0.32969043966676652E-01  0.81861834078692658E-01
 -0.24893352789839090E-01 -0.24058334497341774E-02
 -0.32320493485554880E-01 -0.12559362459907991E-01
  0.69919855409912440E-01  0.17268705693173483E-01
 -0.19319518502540357E-02 -0.32270631011911091E-01
  0.12873050858896425E-01 -0.12713331077251280E-01
  0.91153474392827516      0.68720078848701585E-01
  0.13112257939103101E-01 -0.12715582534821562E-01
  0.84778197963091259E-01 -0.74863971121662071E-01
  0.15483033788353012E-01 -0.63065619761013283E-01
  0.45072222067845009E-01  0.85683281681530568E-01
 -0.54948362076567142E-01 -0.18577568675048478E-01
 -0.15248016120764081E-01  0.62952645681058794E-01
 -0.28461783593759494E-01  0.26310646831458680E-01
  0.34783322318733274E-01 -0.44640082301486868E-01
  0.85019455492183971      0.44644581804353051    
 -0.33164580039123398E-01  0.81723237818247557E-01
  0.17125217250319820E-02  0.32285269605709328E-01
 -0.32154748668015140E-01 -0.12564706183189790E-01
  0.69816694408075863E-01  0.17469023138893456E-01
  0.24790048261943962E-01  0.24637297469669800E-02
 -0.12213528003369606E-01  0.44275804506534899E-01
  0.71958324664153167E-01 -0.42028311901541826E-01
 -0.12042340553656685E-01  0.44326587120612056E-01
  0.80641903595104503      0.42623147149993185    
 -0.34073064795385709E-01  0.25101300492916957E-01
  0.27889940249936958E-01 -0.65806414368942620E-01
 -0.14597049546841028E-01  0.13175399968016442E-01
  0.34044388910951719E-01 -0.25255338198584158E-01
 -0.37376006888333660E-02 -0.26087265838421986E-01
  0.83145883070642093E-01  0.16040558635803396E-01
  0.34284842829960346E-01 -0.41651644262015236E-02
 -0.59380649940110587E-01 -0.19609307866935159E-01
  0.89652307786543550     -0.99174770181602215E-01
  0.33935846713109341E-01 -0.14744194943958772    
  0.29792192214897099E-01  0.66991238389001062E-01
  0.24665638855406038E-01  0.77456060883127446E-02
 -0.42741507598554286E-02 -0.20110660732803827E-01
 -0.43714946440622703E-01 -0.19484608764918074E-01
 -0.44330173491971782E-02 -0.20107900955286230E-01
  0.15789761906688005E-01  0.65487588299776606E-01
 -0.20349278900903783E-02 -0.78311930281795672E-01
  0.91550373708766786     -0.69119585345543091E-01
  0.57045764773510421E-01  0.86814402262810009E-01
  0.20746013740013261E-02  0.78541145023512213E-01
 -0.42847241972796712E-01  0.23520477067127843E-01
 -0.53776107129919946E-01 -0.44511480069841937E-01
 -0.42800513042178738E-01  0.23654001754312093E-01
  0.73973524331341745E-01 -0.18205022496214945E-01
  0.57251291587981895E-01  0.31361496732549239E-01
 -0.43502017672975762E-01  0.13165505173425204    
  0.84192331808551080      0.33560880573283813    
 -0.57436561206995182E-01 -0.31146849478292139E-01
 -0.34190966876486401E-01  0.42571413187535868E-02
 -0.83378526771368033E-01 -0.16196430183388674E-01
  0.38796361862114786E-02  0.26118361686835991E-01
  0.59446900220194297E-01  0.19574456771958924E-01
  0.24394969000066359E-01  0.78214080398683865E-02
 -0.34059659892780939E-01  0.14767301785715256    
 -0.29664153404498721E-01 -0.66765645012354727E-01
  0.89654132047956514     -0.98706821657409627E-01
  0.42942214238346244     -0.84293481748091537    
  0.67890973564214058E-01  0.34526575670687960E-01
  0.67588235876182401E-01  0.34606838777878901E-01
 -0.51249941773317820E-01 -0.38264429998603355E-01
  0.12663331040850620E-01 -0.18727324197264448E-01
 -0.16502946043488904E-01 -0.21724755225623320E-01
  0.12534142261190652E-01 -0.19131319942083398E-01
  0.31842973948580057E-02 -0.25921872431260720E-01
  0.67885309010136952E-01  0.34613019163162513E-01
  0.42892871155108814     -0.84315048292944839    
  0.67979642084877986E-01  0.34330968690246287E-01
 -0.51324325319236738E-01 -0.37956442446019437E-01
  0.12664250117499339E-01 -0.18859199755624851E-01
 -0.16249078536941953E-01 -0.22018936256279407E-01
 -0.34809124928548351E-02  0.26469442434899643E-01
 -0.12738503066892013E-01  0.18631990642685177E-01
  0.67669503410809864E-01  0.34369822878571238E-01
  0.67777341307833444E-01  0.34771335320340768E-01
  0.42931124106151503     -0.84298576980125184    
 -0.51234281969681258E-01 -0.38240568149309810E-01
 -0.34164843183035936E-02  0.26145253126106782E-01
 -0.16345450089718258E-01 -0.21800856320932396E-01
  0.12799787070061340E-01 -0.19145356244446809E-01
 -0.12546616753223040E-01  0.18584492149162603E-01
 -0.52059760137583844E-01 -0.38563708842264038E-01
 -0.52009564496076202E-01 -0.38800956103620513E-01
 -0.52112695591267272E-01 -0.38568791164758198E-01
  0.71862504239356820E-01 -0.94407457945737860    
 -0.24691513794219697E-02  0.31435231553962314E-01
  0.58606556719681353E-01 -0.37142182801560321E-01
 -0.25196829771627766E-02  0.31559189447966388E-01
  0.24744097749487427E-02 -0.31384398183593558E-01
  0.36838020632156042E-01  0.78135762564171853E-02
  0.36743093501578193E-01  0.76518634751724778E-02
 -0.16869553162433881E-01 -0.15177159593311033E-01
 -0.21165746418342707E-01  0.17186300463972026E-01
  0.90498235709654562     -0.61678267965888607E-01
  0.30359369616899144E-01  0.93057425769403596E-01
 -0.10147963948174408E-01 -0.11027326918856366    
  0.10390515350723672E-01  0.11051048052644950    
 -0.51562413773803203E-01 -0.24843020066398630E-01
 -0.51875057119874710E-01 -0.24741815579413604E-01
 -0.51700634676910016E-01 -0.24691364458947110E-01
  0.62545460185824783E-01  0.22878887169025842E-02
  0.54351972328206433E-01  0.82355045081105527E-01
  0.80670442163392619      0.34134850447280168    
  0.54444279354646456E-01  0.82456062616978201E-01
 -0.54329267044647481E-01 -0.82077531388130204E-01
  0.36593658937686013E-01  0.75417696490356892E-02
 -0.16501649715265944E-01 -0.15277477835429112E-01
  0.36430881041312001E-01  0.76678049188937643E-02
 -0.21051311550361759E-01  0.17120038480601511E-01
 -0.10404116751199169E-01 -0.11027062767335900    
  0.30215453004171087E-01  0.93118748123290032E-01
  0.90501122311495741     -0.61857703037652464E-01
  0.10203340812994628E-01  0.11038058888108022    
  0.17149096078944544E-01  0.15041140268394999E-01
 -0.36858400515975769E-01 -0.78137820738659568E-02
 -0.37005787966628539E-01 -0.76997503899175626E-02
  0.21200847612923124E-01 -0.17145657852387499E-01
  0.10056317058424099E-01  0.11049604931071050    
 -0.30500486969461362E-01 -0.92832894323063894E-01
  0.10284286834766680E-01  0.11037508770168943    
  0.90499338336029034     -0.61325328481911037E-01
  0.82078004289334083     -0.44632655779183333    
 -0.42265204652604707E-01 -0.16536882994668992E-01
  0.60747107808297382E-01  0.36981462032236172E-01
 -0.17704908950347785E-01 -0.37588460254437607E-01
 -0.76048530483082522E-01  0.12902413250372387E-01
  0.68587288511881728E-01  0.37535123949960447E-01
  0.42254254784044876E-01 -0.26974594145140127E-01
  0.26028742492175800E-02  0.14440809796687111E-01
 -0.40622311068051128E-01 -0.14734054732430300E-01
  0.82220448815358127     -0.44511031459744882    
  0.58778719680963147E-01  0.34106054245006449E-01
 -0.17340536684905997E-01 -0.37472611461898717E-01
 -0.76989396267298879E-01  0.17089849852628205E-01
  0.68389990352951097E-01  0.36901941303508039E-01
 -0.18974876671829727E-02 -0.17015822461446079E-01
 -0.43242509884339191E-01  0.29515141509793001E-01
  0.27067465179963199E-01  0.26104746349994941E-01
  0.26885691391566154E-01  0.27262265170539871E-01
  0.93616511965012772     -0.61945580125785250E-01
  0.32328298778813755E-01  0.73061271087874580E-01
  0.51492825502095677E-01  0.25551743037248397E-01
 -0.90924138217251538E-01 -0.40203384977073486E-01
  0.24678341174829709E-01 -0.70167166236305260E-03
 -0.23841120490372500E-01  0.10195470690600467E-02
 -0.25451376348550488E-01 -0.90073497256799653E-01
 -0.25167443161401612E-01 -0.90948631247412010E-01
  0.31867032581833057E-01  0.84249845936809259E-01
  0.81437498507388628     -0.43748482285953433    
  0.75055713666458109E-02  0.37734869002963448E-02
 -0.34800266910263812E-01 -0.11393942454213212E-02
  0.89520945253848995E-02  0.35035914901489065E-01
 -0.94950571430848264E-02 -0.35480833428455302E-01
  0.58502688993832534E-01  0.13517390177207947E-01
  0.57403118338422335E-01  0.12854057281636976E-01
  0.38921061301289618E-01 -0.43593634919809145E-01
 -0.56419881297366505E-01  0.25125854269048398E-01
  0.81244349773734603     -0.31855687757131029    
  0.72628836520736637E-01 -0.13188229022552800    
 -0.18251103987193722E-02 -0.59087139156400702E-01
  0.52488696517764171E-03  0.59611245595940394E-01
 -0.11136008663544686E-01 -0.42368272217648099E-01
 -0.10495606622525282E-01 -0.41396406136891294E-01
 -0.37012535320246746E-02 -0.43500417833835792E-02
 -0.17154339253120130E-01  0.21033494155469942E-01
  0.17071727199270064E-01 -0.12721586511880981    
  0.87770377416967316      0.10484657816019430    
  0.16098820058268178E-01  0.12093056251572878    
 -0.14238316354392246E-01 -0.12125895082358880    
  0.36072246325514215E-01 -0.63977320995129297E-02
  0.88246894711768234E-02 -0.58533171576175659E-02
 -0.64009930436053589E-01  0.40941481561045552E-02
  0.17938305529553653E-01 -0.31365718817333167E-01
  0.79315801676009795E-01 -0.49498508413287505E-01
 -0.47294369136844185E-01  0.32730692082054411E-01
  0.91730235181865805      0.12630210672589401    
  0.25240358142563226E-01 -0.52534714351626814E-01
 -0.93901334511736715E-02  0.89916059443100431E-02
 -0.37450215489449573E-01  0.91153229707279550E-02
  0.66055542115421126E-01 -0.75948409908175602E-02
 -0.18362472814502744E-01  0.31011630730266818E-01
 -0.86930377414374801E-01  0.50241434958214919E-01
  0.48316556600756358E-01 -0.32004552515767878E-01
  0.29297177408672190E-01 -0.52722685905651261E-01
  0.91321677523225886      0.12691917576656356    
  0.93555307905416374     -0.61762060587989547E-01
  0.27701958063605533E-01  0.26930721001000156E-01
  0.26993504585559210E-01  0.25950108742457505E-01
  0.32555603586335274E-01  0.73137325741350956E-01
  0.23367598858955983E-01 -0.11083929698363852E-02
 -0.91171120304264552E-01 -0.40268517003807645E-01
  0.24200829638672445E-01 -0.12880252616097267E-02
 -0.52613400145411569E-01 -0.25961893570585648E-01
  0.59364134384790039E-01  0.33854568356634203E-01
  0.82178016185970548     -0.44494614837862118    
 -0.41066133030238774E-01 -0.14286417556444822E-01
 -0.17306739843792426E-01 -0.37405268688757244E-01
  0.44121402629354121E-01 -0.28982196129054862E-01
  0.68598322858768573E-01  0.36617601461140230E-01
 -0.13914325678721820E-02 -0.16850522553465898E-01
  0.78054827269196700E-01 -0.16828916901423401E-01
  0.60168249393682330E-01  0.37414017617847961E-01
 -0.41965858938726522E-01 -0.16613603929104145E-01
  0.82127956403921187     -0.44690405385087978    
 -0.17792496761651351E-01 -0.37687582995488661E-01
 -0.35382400162291845E-02 -0.14957893710348539E-01
  0.68510681957332550E-01  0.37709603269863556E-01
  0.41893697921444824E-01 -0.27121397432344787E-01
  0.75162630490376067E-01 -0.13259810115722050E-01
  0.32333816856317268E-01  0.84191306379710812E-01
 -0.25788807734288214E-01 -0.90677769036477535E-01
 -0.25588319625438068E-01 -0.89947525006267529E-01
  0.81426474237192448     -0.43754264656160741    
  0.99299532748310469E-02  0.35578499745086714E-01
 -0.34724520978949458E-01 -0.99336856424002613E-03
  0.94165732839790271E-02  0.35599378174067345E-01
 -0.67168759667386837E-02 -0.33686862685288880E-02
 -0.66818962633396151E-01  0.69159194748582321E-02
  0.37977684672813851E-01 -0.89021591289294745E-02
  0.10280948649976789E-01 -0.84695610498652409E-02
  0.18257616108238207E-01 -0.30988261935338463E-01
  0.91345108547627030      0.12542245828474205    
 -0.48296616858110437E-01  0.31839614102125866E-01
 -0.28961618061888964E-01  0.52106705843579744E-01
 -0.86446594465684576E-01  0.48657359097593160E-01
 -0.44954930862378100E-02 -0.43208550524155946E-02
 -0.98840242128261872E-02 -0.41925721331965864E-01
 -0.10873580312538626E-01 -0.42081487615838846E-01
 -0.17093874272994320E-01  0.20928534105217472E-01
  0.14200889285175261E-01  0.12110457392982543    
  0.87762827672367816      0.10457399414226501    
  0.15520064068996434E-01  0.12008783535987980    
 -0.17644923709271114E-01  0.12636473856185163    
 -0.63213305006545040E-01  0.46972452140790731E-02
  0.82392341056058277E-02 -0.62035250369380191E-02
  0.35312918151275845E-01 -0.68957480689806330E-02
  0.17987893861318729E-01 -0.31316301900826418E-01
 -0.25708467174415963E-01  0.53785145402461862E-01
 -0.47514736995608958E-01  0.33043223827258418E-01
  0.91711862395675814      0.12702328080449413    
 -0.79795209156181782E-01  0.51416702171774929E-01
 -0.39635971394373914E-01  0.43539821464849505E-01
 -0.56887458010620041E-01 -0.13278655699848580E-01
 -0.58099301144228573E-01 -0.13233763428351015E-01
  0.56423986853635776E-01 -0.25244323473279501E-01
  0.15775171839276379E-03  0.59628214166281911E-01
 -0.72773414031697334E-01  0.13191638662057417    
  0.14352880068142912E-02  0.58175580886213239E-01
  0.81188350700335776     -0.31921815159380840    
  0.82182359345994904     -0.44603214891867216    
  0.59064868528406589E-01  0.36845105056042216E-01
 -0.41271413384808171E-01 -0.16746897132487833E-01
 -0.17578771916057293E-01 -0.37811555157073268E-01
  0.41232306817284584E-01 -0.28470415861004753E-01
  0.68156567561429723E-01  0.37463838863679967E-01
 -0.74861805720080596E-01  0.14592042320833044E-01
  0.27247785630735398E-02  0.15476369362108937E-01
  0.26193432780956184E-01  0.26965573067893964E-01
  0.93710266234057327     -0.62531346089573628E-01
  0.26850160608396911E-01  0.27208964352163460E-01
  0.32072712126710839E-01  0.73006809640865769E-01
  0.25164255276706016E-01 -0.50147049579102245E-03
 -0.90473949050350999E-01 -0.39689861655979972E-01
  0.49906696268358468E-01  0.24662677350751956E-01
 -0.24591621413234052E-01  0.15793188468874234E-03
 -0.41590176516398708E-01 -0.15441331106275545E-01
  0.60285914534329209E-01  0.34684595502693656E-01
  0.82116868218260586     -0.44459676380631180    
 -0.17398007500739682E-01 -0.37380462250282777E-01
 -0.78227407132369609E-03 -0.15430223640019699E-01
  0.68472337118604940E-01  0.37117237456721665E-01
 -0.77918953039808933E-01  0.15022968946512710E-01
 -0.43292933701828649E-01  0.28469385288175979E-01
 -0.24657755995918788E-01 -0.90777448131578856E-01
  0.31075806600912310E-01  0.84487444660774638E-01
 -0.25169271126882449E-01 -0.90945718011843965E-01
  0.81452005442570830     -0.43744103062154216    
  0.85298246339122960E-02  0.34858619867914012E-01
 -0.35095661949477171E-01 -0.14676052617477457E-02
  0.86940827412564908E-02  0.44603421129838705E-02
 -0.89321606426036714E-02 -0.34676123354189042E-01
  0.35899522566047476E-01 -0.75638207796253042E-02
 -0.63612497530498593E-01  0.60771438059855154E-02
  0.77431870085974876E-02 -0.74385765302147243E-02
  0.18041747922267280E-01 -0.31385912156961883E-01
  0.91579454749616374      0.12799657481966320    
 -0.47775780301610206E-01  0.32907374973589476E-01
  0.82107232312308959E-01 -0.52195447105510162E-01
  0.26759429907449395E-01 -0.53751885171706565E-01
 -0.11868019565695611E-01 -0.41664184968516156E-01
 -0.26917289248400496E-02 -0.43032214433129613E-02
 -0.11238407540449245E-01 -0.41829876015544588E-01
 -0.17219743705923142E-01  0.20964663817872632E-01
  0.15744522278794349E-01  0.12150599225366282    
  0.87786217014219770      0.10484445086735532    
  0.16274935911664908E-01 -0.12843715301328262    
 -0.15575671918345647E-01 -0.12256874455553424    
  0.58913606525450364E-01  0.12823639982412743E-01
  0.37963625315186524E-01 -0.43582987869653873E-01
  0.58265770658480313E-01  0.13214739604768232E-01
 -0.56299897767064788E-01  0.24926014366164987E-01
 -0.19011668941507375E-02 -0.59632331991645034E-01
  0.72452867965817874E-01 -0.13169495146618709    
  0.81328550143746181     -0.31734501614060512    
  0.15944383192469382E-02  0.60914004842955179E-01
 -0.97346407523811532E-02  0.74915992663011841E-02
  0.66297088433131396E-01 -0.55304766485552142E-02
 -0.38200202896446322E-01  0.77802966740565110E-02
 -0.17980546045797664E-01  0.30965189462226452E-01
  0.27743427199164679E-01 -0.51286483333457360E-01
  0.47739554004551293E-01 -0.31887781149110873E-01
 -0.84210562734198469E-01  0.47648155944227617E-01
  0.91462917523741039      0.12561068009482898    
  -1.8263628852459186      0.99962702823514804      0.99979076611311468    
 -0.99939753279696009      0.99964032539186354       1.8260196504836494    
 -0.99940577829632893       1.8262343874914366      0.99982270441166199    
  -1.8263431321092416       1.8262411552558926       1.8260170931729443    
 -0.48366946831169566     -0.48360832040165608      0.48360341789128408    
  0.48391641418768988     -0.48368317908182384     -0.48361256313921380    
 -0.48376292683868705      0.48394873939210115     -0.48363900173748164    
  0.48410830805451277      0.48409190567641425      0.48386593556962004    
   2.0144531119796554    
   2.0145773333446844    
   2.0146579604788153    
   2.0146010484033035    
   2.7531522479503865    
   2.7527286996247549    
   2.7525516813912176    
   2.7516377052255159    
