 
             +---------------------------------------------------+
             |                                                   |
             |                   WANNIER90                       |
             |                                                   |
             +---------------------------------------------------+
             |                                                   |
             |        Welcome to the Maximally-Localized         |
             |        Generalized Wannier Functions code         |
             |            http://www.wannier.org                 |
             |                                                   |
             |                                                   |
             |  Wannier90 Developer Group:                       |
             |    Giovanni Pizzi    (EPFL)                       |
             |    Valerio Vitale    (Cambridge)                  |
             |    David Vanderbilt  (Rutgers University)         |
             |    Nicola Marzari    (EPFL)                       |
             |    Ivo Souza         (Universidad del Pais Vasco) |
             |    Arash A. Mostofi  (Imperial College London)    |
             |    Jonathan R. Yates (University of Oxford)       |
             |                                                   |
             |  For the full list of Wannier90 3.x authors,      |
             |  please check the code documentation and the      |
             |  README on the GitHub page of the code            |
             |                                                   |
             |                                                   |
             |  Please cite                                      |
             |                                                   |
             |  [ref] "Wannier90 as a community code:            |
             |        new features and applications",            |
             |        G. Pizzi et al., J. Phys. Cond. Matt. 32,  |
             |        165902 (2020).                             |
             |        http://doi.org/10.1088/1361-648X/ab51ff    |
             |                                                   |
             |  in any publications arising from the use of      |
             |  this code. For the method please cite            |
             |                                                   |
             |  [ref] "Maximally Localized Generalised Wannier   |
             |         Functions for Composite Energy Bands"     |
             |         N. Marzari and D. Vanderbilt              |
             |         Phys. Rev. B 56 12847 (1997)              |
             |                                                   |
             |  [ref] "Maximally Localized Wannier Functions     |
             |         for Entangled Energy Bands"               |
             |         I. Souza, N. Marzari and D. Vanderbilt    |
             |         Phys. Rev. B 65 035109 (2001)             |
             |                                                   |
             |                                                   |
             | Copyright (c) 1996-2020                           |
             |        The Wannier90 Developer Group and          |
             |        individual contributors                    |
             |                                                   |
             |      Release: 3.1.0        5th March    2020      |
             |                                                   |
             | This program is free software; you can            |
             | redistribute it and/or modify it under the terms  |
             | of the GNU General Public License as published by |
             | the Free Software Foundation; either version 2 of |
             | the License, or (at your option) any later version|
             |                                                   |
             | This program is distributed in the hope that it   |
             | will be useful, but WITHOUT ANY WARRANTY; without |
             | even the implied warranty of MERCHANTABILITY or   |
             | FITNESS FOR A PARTICULAR PURPOSE. See the GNU     |
             | General Public License for more details.          |
             |                                                   |
             | You should have received a copy of the GNU General|
             | Public License along with this program; if not,   |
             | write to the Free Software Foundation, Inc.,      |
             | 675 Mass Ave, Cambridge, MA 02139, USA.           |
             |                                                   |
             +---------------------------------------------------+
             |    Execution started on  5Aug2023 at 09:41:07     |
             +---------------------------------------------------+
 
 ******************************************************************************
 * -> Using CODATA 2006 constant values                                       *
 *    (http://physics.nist.gov/cuu/Constants/index.html)                      *
 * -> Using Bohr value from CODATA                                            *
 ******************************************************************************
 

 Running in serial (with parallel executable)
 
                                    ------
                                    SYSTEM
                                    ------
 
                              Lattice Vectors (Ang)
                    a_1    -3.239887   0.000000   3.239887
                    a_2     0.000000   3.239887   3.239887
                    a_3    -3.239887   3.239887   0.000000
 
                   Unit Cell Volume:      68.01736  (Ang^3)
 
                        Reciprocal-Space Vectors (Ang^-1)
                    b_1    -0.969661  -0.969661   0.969661
                    b_2     0.969661   0.969661   0.969661
                    b_3    -0.969661   0.969661  -0.969661
  
 *----------------------------------------------------------------------------*
 |   Site       Fractional Coordinate          Cartesian Coordinate (Ang)     |
 +----------------------------------------------------------------------------+
 | Sb   1   0.25000   0.25000   0.25000   |   -1.61994   1.61994   1.61994    |
 | In   1   0.00000   0.00000   0.00000   |    0.00000   0.00000   0.00000    |
 *----------------------------------------------------------------------------*
  
  
 *-------------------------------- POSTW90 -----------------------------------*
 |  Number of Wannier Functions               :                 8             |
 |  Number of electrons per state             :                 2             |
 |  Scissor shift applied to conduction bands :             0.000             |
 |  Number of valence bands                   :       not defined             |
 |  Fermi energy (eV)                         :             0.000             |
 |  Output verbosity (1=low, 5=high)          :                 1             |
 |  Timing Level (1=low, 5=high)              :                 1             |
 |  Optimisation (0=memory, 3=speed)          :                 3             |
 |  Length Unit                               :               Ang             |
 *----------------------------------------------------------------------------*
 *------------------------ Global Smearing Parameters ------------------------*
 |  Fixed width smearing                      :                 T             |
 |  Smearing width                            :             0.005             |
 |  Smearing Function                                 Fermi-Dirac smearing    |
 |  Global interpolation k-points defined     :                 T             |
 |  Grid size                                 :    20 x  20 x  20             |
 *----------------------------------------------------------------------------*
 *----------------------------------------------------------------------------*
  *-------------------------------- NERWANN-----------------------------------*
 |  Thermomagnetic coefficients               :                 T             |
 |  3d Structure                              :                 T             |
 |  External magnetic field                   :     0.000   0.000   1.000     |
 |  Using global k-point set for interpolation                                |
 |  Step size for TDF (eV)                    :            20.000             |
 |  TDF Smearing Function                             Fermi-Dirac smearing    |
 |  TDF fixed Smearing width (eV)             :             0.005             |
 *----------------------------------------------------------------------------*
 Time to read parameters        0.038 (sec)

 *---------------------------------- K-MESH ----------------------------------*
 +----------------------------------------------------------------------------+
 |                    Distance to Nearest-Neighbour Shells                    |
 |                    ------------------------------------                    |
 |          Shell             Distance (Ang^-1)          Multiplicity         |
 |          -----             -----------------          ------------         |
 |             1                   0.279917                      8            |
 |             2                   0.323220                      6            |
 |             3                   0.457103                     12            |
 |             4                   0.536000                     24            |
 |             5                   0.559834                      8            |
 |             6                   0.646441                      6            |
 |             7                   0.704442                     24            |
 |             8                   0.722743                     24            |
 |             9                   0.791725                     24            |
 |            10                   0.839751                     32            |
 |            11                   0.914205                     12            |
 |            12                   0.956099                     48            |
 |            13                   0.969661                     30            |
 |            14                   1.022112                     24            |
 |            15                   1.059749                     24            |
 |            16                   1.072001                     24            |
 |            17                   1.119668                      8            |
 |            18                   1.154127                     48            |
 |            19                   1.165388                     24            |
 |            20                   1.209380                     48            |
 |            21                   1.241351                     72            |
 |            22                   1.292881                      6            |
 |            23                   1.322836                     24            |
 |            24                   1.332672                     48            |
 |            25                   1.371308                     36            |
 |            26                   1.399585                     56            |
 |            27                   1.408885                     24            |
 |            28                   1.445485                     24            |
 |            29                   1.472339                     72            |
 |            30                   1.481182                     48            |
 |            31                   1.516038                     24            |
 |            32                   1.541663                     48            |
 |            33                   1.583450                     24            |
 |            34                   1.608001                     72            |
 |            35                   1.616102                     30            |
 |            36                   1.648107                     72            |
 +----------------------------------------------------------------------------+
 | The b-vectors are chosen automatically                                     |
 | The following shells are used:   1                                         |
 +----------------------------------------------------------------------------+
 |                        Shell   # Nearest-Neighbours                        |
 |                        -----   --------------------                        |
 |                          1               8                                 |
 +----------------------------------------------------------------------------+
 | Completeness relation is fully satisfied [Eq. (B1), PRB 56, 12847 (1997)]  |
 +----------------------------------------------------------------------------+
 |                  b_k Vectors (Ang^-1) and Weights (Ang^2)                  |
 |                  ----------------------------------------                  |
 |            No.         b_k(x)      b_k(y)      b_k(z)        w_b           |
 |            ---        --------------------------------     --------        |
 |             1        -0.161610    0.161610   -0.161610     4.785999        |
 |             2         0.161610    0.161610    0.161610     4.785999        |
 |             3        -0.161610   -0.161610    0.161610     4.785999        |
 |             4        -0.161610    0.161610    0.161610     4.785999        |
 |             5         0.161610   -0.161610    0.161610     4.785999        |
 |             6        -0.161610   -0.161610   -0.161610     4.785999        |
 |             7         0.161610    0.161610   -0.161610     4.785999        |
 |             8         0.161610   -0.161610   -0.161610     4.785999        |
 +----------------------------------------------------------------------------+
 |                           b_k Directions (Ang^-1)                          |
 |                           -----------------------                          |
 |            No.           x           y           z                         |
 |            ---        --------------------------------                     |
 |             1        -0.161610    0.161610   -0.161610                     |
 |             2         0.161610    0.161610    0.161610                     |
 |             3        -0.161610   -0.161610    0.161610                     |
 |             4        -0.161610    0.161610    0.161610                     |
 +----------------------------------------------------------------------------+
  
 Time to get kmesh              0.156 (sec)
 Reading restart information from file InSb.chk :
 written on  5Aug2023 at 09:29:36 ... done


 Time to read and process       0.006 (sec)
 
 *---------------------------------------------------------------------------*
 |             Boltzmann Transport under a magnetic field (NerWan module)    |
 *---------------------------------------------------------------------------*
 | Please cite the following paper when publishing results obtained using    |
 | the Nerwann module                                                        |
 | S.E. Rezaei, M. Zebajadi, K. Esfarjani,                                   |
 | Comput. Mater. Sci. (2022)10.1016/j.commatsci.2022.111412                 |
 *---------------------------------------------------------------------------*
 
   Calculating Total Transport Distribution function (TDFtot)...
     k-grid used for band interpolation in NerWann: 20x20x20
     Number of electrons per state: 2
     External magnetic field in NerWann:    0.000000000       0.000000000       1.000000000    
     Shifting energy bands with index >= 5 by  -0.3923000000     eV.
   TDF calculated.
 
   Thermomagnetic coefficients calculated.
 
 *---------------------------------------------------------------------------*
 |                        End of the NerWann module                        |
 *---------------------------------------------------------------------------*
 

 Time for NerWann (Thermomagnetic transport)     434.212 (sec)

 Total Execution Time         434.413 (sec)

 *===========================================================================*
 |                             TIMING INFORMATION                            |
 *===========================================================================*
 |    Tag                                                Ncalls      Time (s)|
 |---------------------------------------------------------------------------|
 |kmesh: get                                        :         1         0.156|
 |nerwann_main                                      :         1       434.212|
 |calcTDFtot                                        :         1       434.211|
 |nerwann_main: calc_props                          :         1         0.000|
 *---------------------------------------------------------------------------*
 

 All done: postw90 exiting
