 Reading information from formatted file InSb.chk.fmt :
 written on  5Aug2023 at 09:29:36
Number of bands: 8
Excluded bands: 1,2,3,4,5,6,7,8,9,10.
Real lattice: read.
Reciprocal lattice: read.
Num kpts:216
mp_grid: read.
kpt_latt: read.
nntot:8
num_wann:8
checkpoint: postwann
have_disentangled: FALSE
U_matrix: read.
M_matrix: read.
wannier_centres: read.
wannier_spreads: read.
 ... done


 Writing checkpoint file InSb.chk... done

