 written on 24Apr2022 at 20:57:45 
           4
         539
    2    1    2    1    1    2    1    1    1    2    1    2    1    2    1
    1    2    2    1    1    1    2    1    1    1    1    1    2    1    1
    1    1    1    1    2    1    1    1    1    1    1    1    2    2    1
    1    1    2    2    1    1    1    1    1    1    1    2    1    1    1
    1    1    2    1    1    1    1    1    1    2    1    1    1    1    1
    1    1    2    1    1    1    1    1    1    1    1    1    1    1    1
    1    1    1    1    1    1    1    1    1    1    1    2    1    1    1
    1    2    1    1    1    1    1    1    1    1    1    1    1    1    1
    1    1    1    1    1    1    1    1    1    1    1    1    1    1    1
    1    1    1    1    1    1    1    1    1    1    1    1    1    1    1
    1    1    1    1    1    1    1    1    1    1    1    1    1    1    1
    2    1    1    1    1    1    2    1    1    1    1    1    1    1    1
    1    1    1    1    1    1    1    1    1    1    1    1    1    1    1
    1    1    1    1    1    1    1    1    1    1    1    1    1    1    1
    1    1    1    1    1    1    1    1    1    1    1    1    1    1    1
    1    1    1    1    1    1    1    2    1    1    1    1    1    2    1
    1    1    2    1    1    1    1    1    1    1    1    1    1    1    1
    1    1    1    1    1    1    1    1    1    1    2    1    1    1    1
    1    1    1    2    1    1    1    1    1    1    1    1    1    1    1
    1    1    1    1    1    1    1    1    1    1    1    2    1    1    1
    2    1    1    1    1    1    2    1    1    1    1    1    1    1    1
    1    1    1    1    1    1    1    1    1    1    1    1    1    1    1
    1    1    1    1    1    1    1    1    1    1    1    1    1    1    1
    1    1    1    1    1    1    1    1    1    1    1    1    1    1    1
    1    1    1    1    1    1    1    2    1    1    1    1    1    2    1
    1    1    1    1    1    1    1    1    1    1    1    1    1    1    1
    1    1    1    1    1    1    1    1    1    1    1    1    1    1    1
    1    1    1    1    1    1    1    1    1    1    1    1    1    1    1
    1    1    1    1    1    1    1    1    1    1    1    1    2    1    1
    1    1    2    1    1    1    1    1    1    1    1    1    1    1    1
    1    1    1    1    1    1    1    1    1    1    1    2    1    1    1
    1    1    1    1    2    1    1    1    1    1    1    2    1    1    1
    1    1    2    1    1    1    1    1    1    1    2    2    1    1    1
    2    2    1    1    1    1    1    1    1    2    1    1    1    1    1
    1    2    1    1    1    1    1    2    1    1    1    2    2    1    1
    2    1    2    1    2    1    1    1    2    1    1    2    1    2
   -5   -1    3    1    1   -0.001603    0.000045
   -5   -1    3    2    1   -0.001621    0.000059
   -5   -1    3    3    1   -0.000509    0.000069
   -5   -1    3    4    1   -0.004683   -0.000015
   -5   -1    3    1    2   -0.001614    0.000037
   -5   -1    3    2    2   -0.001608    0.000059
   -5   -1    3    3    2   -0.000510    0.000062
   -5   -1    3    4    2   -0.004688    0.000071
   -5   -1    3    1    3   -0.000034    0.000009
   -5   -1    3    2    3   -0.000041    0.000036
   -5   -1    3    3    3    0.001713    0.000043
   -5   -1    3    4    3   -0.000979    0.000013
   -5   -1    3    1    4   -0.000150   -0.000007
   -5   -1    3    2    4   -0.000118   -0.000014
   -5   -1    3    3    4    0.001523    0.000015
   -5   -1    3    4    4   -0.009454   -0.000147
   -5    0    2    1    1    0.002434   -0.000020
   -5    0    2    2    1   -0.005115   -0.000039
   -5    0    2    3    1   -0.001833   -0.000010
   -5    0    2    4    1   -0.002488    0.000083
   -5    0    2    1    2    0.000450   -0.000012
   -5    0    2    2    2   -0.003450   -0.000042
   -5    0    2    3    2   -0.001633   -0.000012
   -5    0    2    4    2   -0.001532   -0.000056
   -5    0    2    1    3    0.001433   -0.000003
   -5    0    2    2    3   -0.004472   -0.000049
   -5    0    2    3    3    0.001538   -0.000017
   -5    0    2    4    3    0.000536    0.000001
   -5    0    2    1    4    0.001265   -0.000017
   -5    0    2    2    4   -0.005930    0.000016
   -5    0    2    3    4   -0.003774    0.000018
   -5    0    2    4    4    0.005047    0.000079
   -5    0    3    1    1    0.007749   -0.000051
   -5    0    3    2    1    0.005300   -0.000054
   -5    0    3    3    1    0.002952   -0.000109
   -5    0    3    4    1    0.000446   -0.000063
   -5    0    3    1    2    0.005322   -0.000054
   -5    0    3    2    2    0.007728   -0.000061
   -5    0    3    3    2    0.002961   -0.000109
   -5    0    3    4    2    0.000321   -0.000082
   -5    0    3    1    3    0.001620   -0.000042
   -5    0    3    2    3    0.001588   -0.000045
   -5    0    3    3    3   -0.000919   -0.000092
   -5    0    3    4    3   -0.008969   -0.000092
   -5    0    3    1    4   -0.001041   -0.000023
   -5    0    3    2    4   -0.001039   -0.000003
   -5    0    3    3    4   -0.001421   -0.000075
   -5    0    3    4    4   -0.008989    0.000204
   -5    1    1    1    1   -0.005972    0.000011
   -5    1    1    2    1   -0.000102    0.000027
   -5    1    1    3    1   -0.000961   -0.000016
   -5    1    1    4    1   -0.001853   -0.000104
   -5    1    1    1    2    0.001403    0.000027
   -5    1    1    2    2    0.007254    0.000031
   -5    1    1    3    2    0.001332   -0.000015
   -5    1    1    4    2    0.010841    0.000053
   -5    1    1    1    3   -0.001848    0.000037
   -5    1    1    2    3   -0.000538    0.000067
   -5    1    1    3    3   -0.006601    0.000021
   -5    1    1    4    3   -0.003968    0.000044
   -5    1    1    1    4   -0.001963    0.000045
   -5    1    1    2    4    0.009907    0.000014
   -5    1    1    3    4   -0.001959   -0.000040
   -5    1    1    4    4    0.006818   -0.000063
   -5    1    2    1    1    0.002921    0.000060
   -5    1    2    2    1    0.006911    0.000071
   -5    1    2    3    1    0.006565    0.000085
   -5    1    2    4    1    0.003910    0.000071
   -5    1    2    1    2    0.000952    0.000061
   -5    1    2    2    2    0.001636    0.000054
   -5    1    2    3    2    0.001308    0.000075
   -5    1    2    4    2   -0.002593    0.000031
   -5    1    2    1    3    0.004580    0.000078
   -5    1    2    2    3    0.004984    0.000078
   -5    1    2    3    3    0.004901    0.000093
   -5    1    2    4    3    0.003719    0.000107
   -5    1    2    1    4   -0.008885    0.000074
   -5    1    2    2    4   -0.000065   -0.000000
   -5    1    2    3    4   -0.002173    0.000053
   -5    1    2    4    4   -0.012725   -0.000206
   -5    1    3    1    1   -0.012174   -0.000044
   -5    1    3    2    1   -0.007433   -0.000072
   -5    1    3    3    1   -0.008322   -0.000022
   -5    1    3    4    1   -0.001359    0.000056
   -5    1    3    1    2   -0.007436   -0.000043
   -5    1    3    2    2   -0.012168   -0.000058
   -5    1    3    3    2   -0.008326   -0.000011
   -5    1    3    4    2   -0.001330   -0.000030
   -5    1    3    1    3   -0.006714   -0.000061
   -5    1    3    2    3   -0.006714   -0.000092
   -5    1    3    3    3   -0.002814   -0.000049
   -5    1    3    4    3    0.009677   -0.000040
   -5    1    3    1    4   -0.001453   -0.000035
   -5    1    3    2    4   -0.001470   -0.000023
   -5    1    3    3    4    0.007569    0.000021
   -5    1    3    4    4    0.028656    0.000151
   -5    2    0    1    1    0.002963   -0.000063
   -5    2    0    2    1   -0.000004   -0.000076
   -5    2    0    3    1    0.002184   -0.000063
   -5    2    0    4    1    0.001363    0.000025
   -5    2    0    1    2   -0.004398   -0.000065
   -5    2    0    2    2   -0.001589   -0.000060
   -5    2    0    3    2   -0.003665   -0.000043
   -5    2    0    4    2   -0.005791   -0.000077
   -5    2    0    1    3   -0.001113   -0.000065
   -5    2    0    2    3   -0.001821   -0.000076
   -5    2    0    3    3    0.001901   -0.000058
   -5    2    0    4    3   -0.002947   -0.000058
   -5    2    0    1    4   -0.002389   -0.000056
   -5    2    0    2    4   -0.002955    0.000014
   -5    2    0    3    4    0.001513   -0.000003
   -5    2    0    4    4    0.002293    0.000181
   -5    2    1    1    1   -0.002913    0.000008
   -5    2    1    2    1   -0.004125    0.000002
   -5    2    1    3    1   -0.000592    0.000002
   -5    2    1    4    1   -0.002533    0.000016
   -5    2    1    1    2   -0.009668   -0.000011
   -5    2    1    2    2   -0.006919    0.000006
   -5    2    1    3    2   -0.003068    0.000011
   -5    2    1    4    2    0.001176   -0.000017
   -5    2    1    1    3    0.000129   -0.000050
   -5    2    1    2    3   -0.001298   -0.000029
   -5    2    1    3    3    0.000778   -0.000032
   -5    2    1    4    3    0.002763   -0.000066
   -5    2    1    1    4    0.002686   -0.000095
   -5    2    1    2    4   -0.001282   -0.000015
   -5    2    1    3    4    0.002892   -0.000022
   -5    2    1    4    4    0.005787    0.000018
   -5    2    2    1    1    0.003085    0.000013
   -5    2    2    2    1    0.006581    0.000030
   -5    2    2    3    1    0.005586    0.000009
   -5    2    2    4    1    0.005374   -0.000097
   -5    2    2    1    2    0.001826    0.000008
   -5    2    2    2    2    0.002462    0.000034
   -5    2    2    3    2    0.004316    0.000003
   -5    2    2    4    2   -0.002372    0.000071
   -5    2    2    1    3   -0.008526   -0.000002
   -5    2    2    2    3    0.001109    0.000034
   -5    2    2    3    3   -0.002068    0.000007
   -5    2    2    4    3   -0.003549   -0.000008
   -5    2    2    1    4   -0.002300    0.000008
   -5    2    2    2    4    0.003754   -0.000011
   -5    2    2    3    4    0.004220   -0.000021
   -5    2    2    4    4   -0.006746   -0.000054
   -5    2    3    1    1    0.006959    0.000042
   -5    2    3    2    1    0.004667    0.000058
   -5    2    3    3    1    0.000372    0.000055
   -5    2    3    4    1   -0.000289    0.000017
   -5    2    3    1    2    0.004639    0.000051
   -5    2    3    2    2    0.006989    0.000051
   -5    2    3    3    2    0.000372    0.000054
   -5    2    3    4    2   -0.000182    0.000030
   -5    2    3    1    3    0.001228    0.000083
   -5    2    3    2    3    0.001269    0.000090
   -5    2    3    3    3   -0.000473    0.000092
   -5    2    3    4    3   -0.003112    0.000108
   -5    2    3    1    4    0.000842    0.000072
   -5    2    3    2    4    0.000816    0.000052
   -5    2    3    3    4   -0.009408    0.000052
   -5    2    3    4    4   -0.007907   -0.000185
   -5    3   -1    1    1    0.001105    0.000013
   -5    3   -1    2    1   -0.000162    0.000030
   -5    3   -1    3    1    0.000940    0.000031
   -5    3   -1    4    1   -0.002655   -0.000006
   -5    3   -1    1    2    0.002054    0.000001
   -5    3   -1    2    2    0.001612    0.000012
   -5    3   -1    3    2    0.003289    0.000009
   -5    3   -1    4    2    0.000145    0.000076
   -5    3   -1    1    3    0.002069   -0.000011
   -5    3   -1    2    3    0.000570    0.000014
   -5    3   -1    3    3    0.002907    0.000009
   -5    3   -1    4    3   -0.001088    0.000021
   -5    3   -1    1    4   -0.001112    0.000008
   -5    3   -1    2    4   -0.004827   -0.000046
   -5    3   -1    3    4    0.000458   -0.000007
   -5    3   -1    4    4   -0.016577   -0.000035
   -4   -3    4    1    1   -0.001931    0.000023
   -4   -3    4    2    1   -0.003278    0.000027
   -4   -3    4    3    1   -0.003253    0.000070
   -4   -3    4    4    1   -0.000071    0.000066
   -4   -3    4    1    2   -0.003297    0.000031
   -4   -3    4    2    2   -0.001936    0.000034
   -4   -3    4    3    2   -0.003274    0.000074
   -4   -3    4    4    2    0.000010    0.000066
   -4   -3    4    1    3    0.000689    0.000028
   -4   -3    4    2    3    0.000697    0.000029
   -4   -3    4    3    3   -0.000448    0.000069
   -4   -3    4    4    3    0.005788    0.000078
   -4   -3    4    1    4   -0.000587    0.000018
   -4   -3    4    2    4   -0.000645    0.000012
   -4   -3    4    3    4   -0.004889    0.000089
   -4   -3    4    4    4    0.001710   -0.000126
   -4   -2    3    1    1   -0.000993   -0.000026
   -4   -2    3    2    1   -0.002895   -0.000034
   -4   -2    3    3    1   -0.001987   -0.000044
   -4   -2    3    4    1   -0.002152   -0.000074
   -4   -2    3    1    2    0.000264   -0.000038
   -4   -2    3    2    2   -0.001255   -0.000034
   -4   -2    3    3    2   -0.000669   -0.000052
   -4   -2    3    4    2    0.001891   -0.000024
   -4   -2    3    1    3   -0.001696   -0.000052
   -4   -2    3    2    3   -0.004029   -0.000054
   -4   -2    3    3    3   -0.003023   -0.000065
   -4   -2    3    4    3   -0.003863   -0.000094
   -4   -2    3    1    4    0.004521   -0.000036
   -4   -2    3    2    4   -0.000779   -0.000028
   -4   -2    3    3    4    0.002353   -0.000064
   -4   -2    3    4    4    0.005895    0.000126
   -4   -2    4    1    1    0.004585    0.000004
   -4   -2    4    2    1    0.003835    0.000016
   -4   -2    4    3    1    0.003606   -0.000019
   -4   -2    4    4    1    0.000673   -0.000055
   -4   -2    4    1    2    0.003817   -0.000011
   -4   -2    4    2    2    0.004578    0.000003
   -4   -2    4    3    2    0.003600   -0.000037
   -4   -2    4    4    2    0.000654    0.000002
   -4   -2    4    1    3    0.004109    0.000015
   -4   -2    4    2    3    0.004122    0.000034
   -4   -2    4    3    3    0.002252   -0.000001
   -4   -2    4    4    3   -0.000029    0.000018
   -4   -2    4    1    4   -0.001333    0.000056
   -4   -2    4    2    4   -0.001328    0.000008
   -4   -2    4    3    4   -0.002941   -0.000018
   -4   -2    4    4    4   -0.017265   -0.000006
   -4   -1    2    1    1   -0.000540    0.000007
   -4   -1    2    2    1    0.006189    0.000009
   -4   -1    2    3    1    0.004913   -0.000004
   -4   -1    2    4    1    0.005659    0.000007
   -4   -1    2    1    2   -0.001910    0.000026
   -4   -1    2    2    2    0.004958    0.000010
   -4   -1    2    3    2   -0.000222   -0.000008
   -4   -1    2    4    2   -0.002488    0.000022
   -4   -1    2    1    3   -0.003558    0.000075
   -4   -1    2    2    3    0.003448    0.000056
   -4   -1    2    3    3   -0.001899    0.000042
   -4   -1    2    4    3   -0.004458    0.000085
   -4   -1    2    1    4   -0.002805    0.000063
   -4   -1    2    2    4    0.002861    0.000016
   -4   -1    2    3    4    0.001738    0.000022
   -4   -1    2    4    4   -0.002458   -0.000059
   -4   -1    3    1    1   -0.005496   -0.000001
   -4   -1    3    2    1   -0.001012   -0.000017
   -4   -1    3    3    1   -0.002706   -0.000003
   -4   -1    3    4    1   -0.002157    0.000083
   -4   -1    3    1    2   -0.004078    0.000012
   -4   -1    3    2    2   -0.003340   -0.000016
   -4   -1    3    3    2   -0.002176    0.000014
   -4   -1    3    4    2   -0.001548   -0.000045
   -4   -1    3    1    3   -0.004197    0.000014
   -4   -1    3    2    3   -0.003126   -0.000015
   -4   -1    3    3    3    0.000036    0.000007
   -4   -1    3    4    3    0.000915    0.000015
   -4   -1    3    1    4    0.001485   -0.000028
   -4   -1    3    2    4    0.001811    0.000030
   -4   -1    3    3    4   -0.001681    0.000021
   -4   -1    3    4    4    0.008863    0.000010
   -4   -1    4    1    1    0.001685   -0.000031
   -4   -1    4    2    1    0.000770   -0.000036
   -4   -1    4    3    1   -0.000246   -0.000028
   -4   -1    4    4    1    0.001255   -0.000019
   -4   -1    4    1    2    0.000821   -0.000041
   -4   -1    4    2    2    0.001681   -0.000042
   -4   -1    4    3    2   -0.000220   -0.000033
   -4   -1    4    4    2    0.001200   -0.000020
   -4   -1    4    1    3    0.000269   -0.000083
   -4   -1    4    2    3    0.000230   -0.000084
   -4   -1    4    3    3   -0.001833   -0.000078
   -4   -1    4    4    3   -0.006712   -0.000094
   -4   -1    4    1    4   -0.000217   -0.000062
   -4   -1    4    2    4   -0.000152   -0.000057
   -4   -1    4    3    4   -0.001904   -0.000065
   -4   -1    4    4    4   -0.002667    0.000150
   -4    0    0    1    1   -0.015636    0.000000
   -4    0    0    2    1   -0.002105   -0.000027
   -4    0    0    3    1   -0.007576   -0.000040
   -4    0    0    4    1   -0.002448    0.000009
   -4    0    0    1    2   -0.002105    0.000027
   -4    0    0    2    2    0.003997    0.000000
   -4    0    0    3    2   -0.002861    0.000000
   -4    0    0    4    2    0.011005   -0.000061
   -4    0    0    1    3   -0.007576    0.000040
   -4    0    0    2    3   -0.002861   -0.000000
   -4    0    0    3    3   -0.017783    0.000000
   -4    0    0    4    3   -0.004420   -0.000015
   -4    0    0    1    4   -0.002448   -0.000009
   -4    0    0    2    4    0.011005    0.000061
   -4    0    0    3    4   -0.004420    0.000015
   -4    0    0    4    4    0.020270    0.000000
   -4    0    1    1    1    0.004434   -0.000010
   -4    0    1    2    1   -0.000263   -0.000009
   -4    0    1    3    1    0.000377   -0.000041
   -4    0    1    4    1   -0.002336   -0.000051
   -4    0    1    1    2    0.010360   -0.000032
   -4    0    1    2    2    0.002148   -0.000009
   -4    0    1    3    2    0.007458   -0.000034
   -4    0    1    4    2    0.002095   -0.000035
   -4    0    1    1    3    0.007355   -0.000052
   -4    0    1    2    3    0.002169   -0.000031
   -4    0    1    3    3    0.009519   -0.000049
   -4    0    1    4    3    0.005026   -0.000084
   -4    0    1    1    4    0.001870   -0.000053
   -4    0    1    2    4   -0.003392   -0.000002
   -4    0    1    3    4    0.004014   -0.000049
   -4    0    1    4    4   -0.012558    0.000069
   -4    0    2    1    1   -0.002967   -0.000016
   -4    0    2    2    1   -0.009245    0.000017
   -4    0    2    3    1   -0.008935    0.000034
   -4    0    2    4    1   -0.007326   -0.000059
   -4    0    2    1    2    0.002941   -0.000042
   -4    0    2    2    2   -0.002232    0.000001
   -4    0    2    3    2   -0.002938    0.000002
   -4    0    2    4    2    0.000405    0.000067
   -4    0    2    1    3    0.004270   -0.000068
   -4    0    2    2    3   -0.003704   -0.000014
   -4    0    2    3    3   -0.000539   -0.000012
   -4    0    2    4    3    0.000155   -0.000006
   -4    0    2    1    4    0.005974   -0.000006
   -4    0    2    2    4   -0.000449   -0.000046
   -4    0    2    3    4   -0.000374   -0.000002
   -4    0    2    4    4    0.009018    0.000027
   -4    0    3    1    1    0.003656    0.000044
   -4    0    3    2    1    0.000286    0.000045
   -4    0    3    3    1    0.001193    0.000060
   -4    0    3    4    1    0.001913    0.000066
   -4    0    3    1    2    0.004144    0.000064
   -4    0    3    2    2    0.006369    0.000048
   -4    0    3    3    2    0.001492    0.000063
   -4    0    3    4    2    0.002661    0.000035
   -4    0    3    1    3    0.009895    0.000081
   -4    0    3    2    3    0.007341    0.000065
   -4    0    3    3    3    0.004329    0.000080
   -4    0    3    4    3    0.005345    0.000099
   -4    0    3    1    4   -0.000418    0.000030
   -4    0    3    2    4    0.000618    0.000030
   -4    0    3    3    4   -0.002067    0.000055
   -4    0    3    4    4   -0.010811   -0.000171
   -4    0    4    1    1   -0.013161   -0.000000
   -4    0    4    2    1   -0.004457   -0.000019
   -4    0    4    3    1   -0.005152   -0.000040
   -4    0    4    4    1   -0.001094    0.000002
   -4    0    4    1    2   -0.004457    0.000019
   -4    0    4    2    2   -0.013144   -0.000000
   -4    0    4    3    2   -0.005143   -0.000015
   -4    0    4    4    2   -0.001105   -0.000051
   -4    0    4    1    3   -0.005152    0.000040
   -4    0    4    2    3   -0.005143    0.000015
   -4    0    4    3    3   -0.004061    0.000000
   -4    0    4    4    3    0.005715   -0.000007
   -4    0    4    1    4   -0.001094   -0.000002
   -4    0    4    2    4   -0.001105    0.000051
   -4    0    4    3    4    0.005715    0.000007
   -4    0    4    4    4    0.021213    0.000000
   -4    1   -1    1    1    0.004273   -0.000036
   -4    1   -1    2    1    0.004235   -0.000043
   -4    1   -1    3    1    0.006267   -0.000038
   -4    1   -1    4    1    0.002676   -0.000049
   -4    1   -1    1    2   -0.002670   -0.000048
   -4    1   -1    2    2   -0.002764   -0.000044
   -4    1   -1    3    2   -0.000466   -0.000056
   -4    1   -1    4    2   -0.007902    0.000020
   -4    1   -1    1    3    0.001721   -0.000048
   -4    1   -1    2    3    0.002754   -0.000031
   -4    1   -1    3    3    0.005730   -0.000040
   -4    1   -1    4    3   -0.002825    0.000005
   -4    1   -1    1    4   -0.001950    0.000044
   -4    1   -1    2    4   -0.003394   -0.000062
   -4    1   -1    3    4    0.004543   -0.000056
   -4    1   -1    4    4   -0.008373    0.000121
   -4    1    0    1    1   -0.000534    0.000063
   -4    1    0    2    1   -0.003979    0.000071
   -4    1    0    3    1   -0.006747    0.000128
   -4    1    0    4    1   -0.004134    0.000134
   -4    1    0    1    2   -0.003167    0.000042
   -4    1    0    2    2   -0.006510    0.000037
   -4    1    0    3    2   -0.004803    0.000088
   -4    1    0    4    2   -0.003033    0.000019
   -4    1    0    1    3    0.004338    0.000052
   -4    1    0    2    3    0.002835    0.000044
   -4    1    0    3    3    0.005232    0.000092
   -4    1    0    4    3    0.007578    0.000073
   -4    1    0    1    4    0.009827    0.000057
   -4    1    0    2    4    0.001253   -0.000012
   -4    1    0    3    4    0.001351    0.000101
   -4    1    0    4    4    0.005354   -0.000193
   -4    1    1    1    1    0.000849   -0.000023
   -4    1    1    2    1    0.001319   -0.000033
   -4    1    1    3    1    0.011819   -0.000036
   -4    1    1    4    1    0.005752    0.000032
   -4    1    1    1    2   -0.005780   -0.000019
   -4    1    1    2    2    0.000699   -0.000020
   -4    1    1    3    2   -0.006084   -0.000017
   -4    1    1    4    2    0.002003   -0.000045
   -4    1    1    1    3   -0.010541   -0.000008
   -4    1    1    2    3   -0.004782   -0.000034
   -4    1    1    3    3   -0.012496   -0.000029
   -4    1    1    4    3   -0.006185   -0.000048
   -4    1    1    1    4   -0.006415   -0.000061
   -4    1    1    2    4    0.004850    0.000038
   -4    1    1    3    4   -0.005098   -0.000002
   -4    1    1    4    4    0.006224    0.000073
   -4    1    2    1    1    0.003466   -0.000008
   -4    1    2    2    1    0.011030   -0.000016
   -4    1    2    3    1    0.001528   -0.000058
   -4    1    2    4    1   -0.002534   -0.000064
   -4    1    2    1    2   -0.002438   -0.000005
   -4    1    2    2    2   -0.006354   -0.000012
   -4    1    2    3    2   -0.001196   -0.000035
   -4    1    2    4    2    0.000179   -0.000050
   -4    1    2    1    3   -0.001933   -0.000012
   -4    1    2    2    3   -0.004486   -0.000007
   -4    1    2    3    3   -0.000235   -0.000037
   -4    1    2    4    3    0.002096   -0.000052
   -4    1    2    1    4   -0.003023   -0.000013
   -4    1    2    2    4   -0.008692    0.000018
   -4    1    2    3    4    0.001011   -0.000050
   -4    1    2    4    4   -0.001600    0.000058
   -4    1    3    1    1    0.003469   -0.000014
   -4    1    3    2    1   -0.000001    0.000013
   -4    1    3    3    1    0.002601   -0.000002
   -4    1    3    4    1   -0.000138   -0.000074
   -4    1    3    1    2    0.004157   -0.000027
   -4    1    3    2    2    0.006367    0.000007
   -4    1    3    3    2    0.006155   -0.000012
   -4    1    3    4    2   -0.001153    0.000031
   -4    1    3    1    3    0.000935   -0.000036
   -4    1    3    2    3    0.001660    0.000008
   -4    1    3    3    3    0.000188   -0.000012
   -4    1    3    4    3   -0.002855   -0.000023
   -4    1    3    1    4    0.006354    0.000040
   -4    1    3    2    4    0.005725   -0.000045
   -4    1    3    3    4    0.004441   -0.000018
   -4    1    3    4    4   -0.006481    0.000019
   -4    1    4    1    1    0.001685    0.000031
   -4    1    4    2    1    0.000821    0.000041
   -4    1    4    3    1    0.000269    0.000083
   -4    1    4    4    1   -0.000217    0.000062
   -4    1    4    1    2    0.000770    0.000036
   -4    1    4    2    2    0.001681    0.000042
   -4    1    4    3    2    0.000230    0.000084
   -4    1    4    4    2   -0.000152    0.000057
   -4    1    4    1    3   -0.000246    0.000028
   -4    1    4    2    3   -0.000220    0.000033
   -4    1    4    3    3   -0.001833    0.000078
   -4    1    4    4    3   -0.001904    0.000065
   -4    1    4    1    4    0.001255    0.000019
   -4    1    4    2    4    0.001200    0.000020
   -4    1    4    3    4   -0.006712    0.000094
   -4    1    4    4    4   -0.002667   -0.000150
   -4    2   -2    1    1   -0.000352   -0.000002
   -4    2   -2    2    1   -0.002058   -0.000004
   -4    2   -2    3    1   -0.001444    0.000016
   -4    2   -2    4    1   -0.000792    0.000051
   -4    2   -2    1    2   -0.001416    0.000018
   -4    2   -2    2    2   -0.003807    0.000012
   -4    2   -2    3    2   -0.001301    0.000050
   -4    2   -2    4    2   -0.003604   -0.000004
   -4    2   -2    1    3   -0.000219   -0.000023
   -4    2   -2    2    3   -0.001069   -0.000029
   -4    2   -2    3    3    0.000594    0.000001
   -4    2   -2    4    3    0.000546   -0.000025
   -4    2   -2    1    4    0.000517   -0.000103
   -4    2   -2    2    4   -0.002977    0.000035
   -4    2   -2    3    4    0.000756    0.000025
   -4    2   -2    4    4   -0.002285   -0.000010
   -4    2   -1    1    1   -0.005992   -0.000000
   -4    2   -1    2    1   -0.003896   -0.000009
   -4    2   -1    3    1   -0.000918   -0.000028
   -4    2   -1    4    1   -0.001492   -0.000061
   -4    2   -1    1    2    0.000322    0.000001
   -4    2   -1    2    2    0.000123    0.000007
   -4    2   -1    3    2    0.003131   -0.000014
   -4    2   -1    4    2    0.002946    0.000006
   -4    2   -1    1    3   -0.006329   -0.000032
   -4    2   -1    2    3   -0.007042   -0.000029
   -4    2   -1    3    3   -0.005750   -0.000045
   -4    2   -1    4    3   -0.002953   -0.000065
   -4    2   -1    1    4   -0.002248   -0.000061
   -4    2   -1    2    4   -0.000333   -0.000017
   -4    2   -1    3    4   -0.001110   -0.000072
   -4    2   -1    4    4    0.011680    0.000038
   -4    2    0    1    1    0.007555   -0.000013
   -4    2    0    2    1    0.003723   -0.000016
   -4    2    0    3    1    0.001553   -0.000049
   -4    2    0    4    1   -0.004320   -0.000086
   -4    2    0    1    2    0.010595   -0.000004
   -4    2    0    2    2    0.009783   -0.000008
   -4    2    0    3    2    0.006847   -0.000050
   -4    2    0    4    2    0.000573    0.000034
   -4    2    0    1    3    0.011660    0.000025
   -4    2    0    2    3    0.006676    0.000028
   -4    2    0    3    3    0.007048   -0.000005
   -4    2    0    4    3   -0.002107    0.000033
   -4    2    0    1    4    0.006638    0.000081
   -4    2    0    2    4   -0.000661   -0.000037
   -4    2    0    3    4   -0.000400   -0.000046
   -4    2    0    4    4   -0.021107    0.000025
   -4    2    1    1    1   -0.001889   -0.000013
   -4    2    1    2    1   -0.000487   -0.000009
   -4    2    1    3    1   -0.003668    0.000020
   -4    2    1    4    1    0.011898    0.000059
   -4    2    1    1    2   -0.007311    0.000007
   -4    2    1    2    2   -0.000605   -0.000009
   -4    2    1    3    2    0.000213    0.000021
   -4    2    1    4    2   -0.005692    0.000020
   -4    2    1    1    3   -0.005449    0.000017
   -4    2    1    2    3    0.003031    0.000015
   -4    2    1    3    3   -0.000674    0.000038
   -4    2    1    4    3   -0.003684    0.000077
   -4    2    1    1    4   -0.008932    0.000065
   -4    2    1    2    4    0.002075   -0.000000
   -4    2    1    3    4   -0.003730    0.000062
   -4    2    1    4    4   -0.001554   -0.000016
   -4    2    2    1    1   -0.000863    0.000028
   -4    2    2    2    1   -0.007561    0.000003
   -4    2    2    3    1   -0.003809    0.000034
   -4    2    2    4    1   -0.008493    0.000118
   -4    2    2    1    2    0.004048    0.000033
   -4    2    2    2    2   -0.001448    0.000017
   -4    2    2    3    2    0.000847    0.000046
   -4    2    2    4    2   -0.001911   -0.000028
   -4    2    2    1    3    0.003564    0.000019
   -4    2    2    2    3   -0.001549   -0.000018
   -4    2    2    3    3    0.005078    0.000017
   -4    2    2    4    3    0.002130   -0.000007
   -4    2    2    1    4    0.007944   -0.000062
   -4    2    2    2    4   -0.003767    0.000015
   -4    2    2    3    4    0.003560    0.000016
   -4    2    2    4    4    0.000513   -0.000062
   -4    2    3    1    1   -0.006032   -0.000029
   -4    2    3    2    1   -0.001307   -0.000036
   -4    2    3    3    1   -0.003748   -0.000052
   -4    2    3    4    1   -0.000560   -0.000066
   -4    2    3    1    2   -0.004346   -0.000051
   -4    2    3    2    2   -0.003343   -0.000043
   -4    2    3    3    2   -0.005027   -0.000069
   -4    2    3    4    2    0.003150   -0.000017
   -4    2    3    1    3   -0.002278   -0.000056
   -4    2    3    2    3    0.000274   -0.000053
   -4    2    3    3    3   -0.001542   -0.000074
   -4    2    3    4    3   -0.001145   -0.000081
   -4    2    3    1    4   -0.003434   -0.000043
   -4    2    3    2    4   -0.001619   -0.000033
   -4    2    3    3    4   -0.000346   -0.000069
   -4    2    3    4    4    0.010978    0.000146
   -4    2    4    1    1    0.004585   -0.000004
   -4    2    4    2    1    0.003817    0.000011
   -4    2    4    3    1    0.004109   -0.000015
   -4    2    4    4    1   -0.001333   -0.000056
   -4    2    4    1    2    0.003835   -0.000016
   -4    2    4    2    2    0.004578   -0.000003
   -4    2    4    3    2    0.004122   -0.000034
   -4    2    4    4    2   -0.001328   -0.000008
   -4    2    4    1    3    0.003606    0.000019
   -4    2    4    2    3    0.003600    0.000037
   -4    2    4    3    3    0.002252    0.000001
   -4    2    4    4    3   -0.002941    0.000018
   -4    2    4    1    4    0.000673    0.000055
   -4    2    4    2    4    0.000654   -0.000002
   -4    2    4    3    4   -0.000029   -0.000018
   -4    2    4    4    4   -0.017265    0.000006
   -4    3   -3    1    1    0.001202    0.000003
   -4    3   -3    2    1    0.000290    0.000015
   -4    3   -3    3    1   -0.001257    0.000017
   -4    3   -3    4    1   -0.002349   -0.000035
   -4    3   -3    1    2    0.001962   -0.000015
   -4    3   -3    2    2    0.000362   -0.000012
   -4    3   -3    3    2    0.001168   -0.000018
   -4    3   -3    4    2    0.000269    0.000034
   -4    3   -3    1    3    0.001364    0.000006
   -4    3   -3    2    3    0.001601    0.000011
   -4    3   -3    3    3    0.001790    0.000007
   -4    3   -3    4    3    0.002158    0.000016
   -4    3   -3    1    4    0.002048    0.000062
   -4    3   -3    2    4   -0.000987   -0.000025
   -4    3   -3    3    4    0.000075    0.000018
   -4    3   -3    4    4   -0.005960    0.000002
   -4    3   -2    1    1    0.000639   -0.000007
   -4    3   -2    2    1    0.004028   -0.000009
   -4    3   -2    3    1    0.001524   -0.000003
   -4    3   -2    4    1    0.002426    0.000008
   -4    3   -2    1    2    0.001293    0.000001
   -4    3   -2    2    2    0.003441   -0.000002
   -4    3   -2    3    2    0.001202   -0.000007
   -4    3   -2    4    2   -0.000517   -0.000021
   -4    3   -2    1    3   -0.001349    0.000043
   -4    3   -2    2    3    0.002309    0.000025
   -4    3   -2    3    3   -0.000360    0.000032
   -4    3   -2    4    3   -0.002067    0.000051
   -4    3   -2    1    4   -0.005443    0.000059
   -4    3   -2    2    4    0.003940    0.000049
   -4    3   -2    3    4   -0.002095    0.000049
   -4    3   -2    4    4   -0.003097   -0.000024
   -4    3   -1    1    1   -0.004152    0.000034
   -4    3   -1    2    1   -0.002509    0.000040
   -4    3   -1    3    1   -0.002996    0.000033
   -4    3   -1    4    1   -0.000755    0.000061
   -4    3   -1    1    2    0.001090    0.000044
   -4    3   -1    2    2    0.000540    0.000041
   -4    3   -1    3    2   -0.003157    0.000045
   -4    3   -1    4    2    0.003862   -0.000033
   -4    3   -1    1    3   -0.001057    0.000048
   -4    3   -1    2    3    0.000150    0.000044
   -4    3   -1    3    3    0.000896    0.000047
   -4    3   -1    4    3    0.002038    0.000009
   -4    3   -1    1    4   -0.000543   -0.000030
   -4    3   -1    2    4   -0.003720    0.000046
   -4    3   -1    3    4   -0.002117    0.000046
   -4    3   -1    4    4    0.002779   -0.000122
   -4    3    0    1    1   -0.000320   -0.000046
   -4    3    0    2    1   -0.003884   -0.000027
   -4    3    0    3    1   -0.000554   -0.000041
   -4    3    0    4    1   -0.003682   -0.000060
   -4    3    0    1    2   -0.002701   -0.000060
   -4    3    0    2    2   -0.006023   -0.000029
   -4    3    0    3    2   -0.000452   -0.000041
   -4    3    0    4    2   -0.001635    0.000011
   -4    3    0    1    3    0.003755   -0.000104
   -4    3    0    2    3   -0.003080   -0.000067
   -4    3    0    3    3   -0.000058   -0.000087
   -4    3    0    4    3    0.000496   -0.000083
   -4    3    0    1    4    0.004427   -0.000126
   -4    3    0    2    4    0.001166   -0.000017
   -4    3    0    3    4    0.005785   -0.000072
   -4    3    0    4    4    0.009943    0.000163
   -4    3    1    1    1    0.002562    0.000042
   -4    3    1    2    1   -0.000615    0.000041
   -4    3    1    3    1   -0.000018    0.000051
   -4    3    1    4    1   -0.005312   -0.000034
   -4    3    1    1    2    0.008742    0.000031
   -4    3    1    2    2    0.001857    0.000021
   -4    3    1    3    2    0.002649    0.000022
   -4    3    1    4    2    0.005471    0.000050
   -4    3    1    1    3    0.002504    0.000029
   -4    3    1    2    3    0.002059    0.000034
   -4    3    1    3    3   -0.000961    0.000033
   -4    3    1    4    3   -0.000194    0.000042
   -4    3    1    1    4    0.005947    0.000050
   -4    3    1    2    4    0.000180   -0.000039
   -4    3    1    3    4    0.000781   -0.000007
   -4    3    1    4    4    0.000085   -0.000097
   -4    3    2    1    1   -0.000318   -0.000008
   -4    3    2    2    1    0.005882   -0.000007
   -4    3    2    3    1    0.002685   -0.000012
   -4    3    2    4    1    0.006687    0.000006
   -4    3    2    1    2   -0.001206    0.000005
   -4    3    2    2    2    0.004999   -0.000008
   -4    3    2    3    2    0.000726   -0.000017
   -4    3    2    4    2   -0.004476    0.000008
   -4    3    2    1    3    0.000621    0.000047
   -4    3    2    2    3    0.001513    0.000032
   -4    3    2    3    3    0.000833    0.000026
   -4    3    2    4    3    0.001841    0.000060
   -4    3    2    1    4   -0.005306    0.000072
   -4    3    2    2    4    0.004408    0.000025
   -4    3    2    3    4   -0.003734    0.000041
   -4    3    2    4    4   -0.005452   -0.000010
   -4    3    3    1    1   -0.001232    0.000009
   -4    3    3    2    1   -0.003105   -0.000011
   -4    3    3    3    1   -0.002813    0.000002
   -4    3    3    4    1   -0.002608    0.000071
   -4    3    3    1    2   -0.000089    0.000028
   -4    3    3    2    2   -0.001658    0.000003
   -4    3    3    3    2   -0.001074    0.000029
   -4    3    3    4    2    0.001354   -0.000031
   -4    3    3    1    3    0.002848    0.000020
   -4    3    3    2    3   -0.000278   -0.000010
   -4    3    3    3    3   -0.000543    0.000013
   -4    3    3    4    3    0.002685    0.000016
   -4    3    3    1    4    0.001149   -0.000027
   -4    3    3    2    4   -0.004129    0.000034
   -4    3    3    3    4   -0.003015    0.000021
   -4    3    3    4    4    0.004056   -0.000025
   -4    3    4    1    1   -0.001931   -0.000023
   -4    3    4    2    1   -0.003297   -0.000031
   -4    3    4    3    1    0.000689   -0.000028
   -4    3    4    4    1   -0.000587   -0.000018
   -4    3    4    1    2   -0.003278   -0.000027
   -4    3    4    2    2   -0.001936   -0.000034
   -4    3    4    3    2    0.000697   -0.000029
   -4    3    4    4    2   -0.000645   -0.000012
   -4    3    4    1    3   -0.003253   -0.000070
   -4    3    4    2    3   -0.003274   -0.000074
   -4    3    4    3    3   -0.000448   -0.000069
   -4    3    4    4    3   -0.004889   -0.000089
   -4    3    4    1    4   -0.000071   -0.000066
   -4    3    4    2    4    0.000010   -0.000066
   -4    3    4    3    4    0.005788   -0.000078
   -4    3    4    4    4    0.001710    0.000126
   -4    4   -4    1    1    0.003087    0.000000
   -4    4   -4    2    1    0.002861   -0.000009
   -4    4   -4    3    1    0.001933   -0.000025
   -4    4   -4    4    1    0.005426    0.000016
   -4    4   -4    1    2    0.002861    0.000009
   -4    4   -4    2    2    0.003104    0.000000
   -4    4   -4    3    2    0.001942   -0.000011
   -4    4   -4    4    2    0.005416   -0.000036
   -4    4   -4    1    3    0.001933    0.000025
   -4    4   -4    2    3    0.001942    0.000011
   -4    4   -4    3    3    0.000818    0.000000
   -4    4   -4    4    3    0.002960    0.000008
   -4    4   -4    1    4    0.005426   -0.000016
   -4    4   -4    2    4    0.005416    0.000036
   -4    4   -4    3    4    0.002960   -0.000008
   -4    4   -4    4    4    0.016362    0.000000
   -4    4   -3    1    1    0.001510   -0.000023
   -4    4   -3    2    1    0.000287   -0.000031
   -4    4   -3    3    1    0.001272   -0.000048
   -4    4   -3    4    1   -0.002239   -0.000030
   -4    4   -3    1    2    0.002067   -0.000028
   -4    4   -3    2    2    0.000214   -0.000025
   -4    4   -3    3    2    0.001208   -0.000042
   -4    4   -3    4    2    0.001200   -0.000044
   -4    4   -3    1    3    0.001854   -0.000046
   -4    4   -3    2    3    0.000229   -0.000038
   -4    4   -3    3    3    0.000717   -0.000058
   -4    4   -3    4    3   -0.001224   -0.000067
   -4    4   -3    1    4    0.000416   -0.000057
   -4    4   -3    2    4   -0.002494   -0.000028
   -4    4   -3    3    4    0.002044   -0.000085
   -4    4   -3    4    4   -0.005046    0.000106
   -4    4   -2    1    1   -0.001488    0.000013
   -4    4   -2    2    1   -0.002895    0.000031
   -4    4   -2    3    1   -0.001337    0.000048
   -4    4   -2    4    1   -0.001878   -0.000001
   -4    4   -2    1    2   -0.001960   -0.000012
   -4    4   -2    2    2   -0.003975   -0.000002
   -4    4   -2    3    2   -0.002686    0.000006
   -4    4   -2    4    2   -0.001176    0.000054
   -4    4   -2    1    3   -0.001547   -0.000026
   -4    4   -2    2    3   -0.003341   -0.000007
   -4    4   -2    3    3   -0.002243    0.000002
   -4    4   -2    4    3   -0.001277    0.000002
   -4    4   -2    1    4   -0.000407    0.000052
   -4    4   -2    2    4   -0.001053   -0.000065
   -4    4   -2    3    4   -0.000548    0.000005
   -4    4   -2    4    4    0.001855   -0.000013
   -4    4   -1    1    1    0.006448   -0.000001
   -4    4   -1    2    1    0.005609   -0.000002
   -4    4   -1    3    1    0.001610    0.000020
   -4    4   -1    4    1    0.006355    0.000053
   -4    4   -1    1    2   -0.001404   -0.000009
   -4    4   -1    2    2   -0.002059   -0.000021
   -4    4   -1    3    2   -0.005897    0.000007
   -4    4   -1    4    2   -0.005819    0.000004
   -4    4   -1    1    3    0.004338    0.000027
   -4    4   -1    2    3    0.000082    0.000007
   -4    4   -1    3    3   -0.000342    0.000031
   -4    4   -1    4    3    0.003735    0.000054
   -4    4   -1    1    4    0.001363    0.000053
   -4    4   -1    2    4    0.000957    0.000022
   -4    4   -1    3    4   -0.002851    0.000069
   -4    4   -1    4    4   -0.005182   -0.000009
   -4    4    0    1    1   -0.016867    0.000000
   -4    4    0    2    1   -0.003246   -0.000024
   -4    4    0    3    1   -0.006509   -0.000025
   -4    4    0    4    1   -0.005177    0.000013
   -4    4    0    1    2   -0.003246    0.000024
   -4    4    0    2    2    0.002975   -0.000000
   -4    4    0    3    2    0.003011    0.000007
   -4    4    0    4    2    0.004876   -0.000070
   -4    4    0    1    3   -0.006509    0.000025
   -4    4    0    2    3    0.003011   -0.000007
   -4    4    0    3    3   -0.002292    0.000000
   -4    4    0    4    3    0.000105   -0.000025
   -4    4    0    1    4   -0.005177   -0.000013
   -4    4    0    2    4    0.004876    0.000070
   -4    4    0    3    4    0.000105    0.000025
   -4    4    0    4    4    0.007031   -0.000000
   -3   -4    3    1    1   -0.002288   -0.000013
   -3   -4    3    2    1   -0.005255   -0.000018
   -3   -4    3    3    1   -0.002453   -0.000001
   -3   -4    3    4    1   -0.004415   -0.000026
   -3   -4    3    1    2    0.000480   -0.000029
   -3   -4    3    2    2   -0.002293   -0.000026
   -3   -4    3    3    2    0.000288   -0.000003
   -3   -4    3    4    2    0.002617   -0.000020
   -3   -4    3    1    3    0.000287   -0.000073
   -3   -4    3    2    3   -0.002469   -0.000066
   -3   -4    3    3    3    0.000756   -0.000048
   -3   -4    3    4    3   -0.000970   -0.000082
   -3   -4    3    1    4    0.002590   -0.000033
   -3   -4    3    2    4   -0.004414   -0.000050
   -3   -4    3    3    4   -0.000977   -0.000041
   -3   -4    3    4    4    0.001219    0.000087
   -3   -3    2    1    1   -0.001905    0.000013
   -3   -3    2    2    1    0.001323    0.000007
   -3   -3    2    3    1   -0.002550    0.000028
   -3   -3    2    4    1    0.000107    0.000048
   -3   -3    2    1    2   -0.002226    0.000036
   -3   -3    2    2    2    0.000049    0.000016
   -3   -3    2    3    2   -0.003111    0.000028
   -3   -3    2    4    2   -0.000267    0.000051
   -3   -3    2    1    3   -0.001220    0.000057
   -3   -3    2    2    3    0.002356    0.000042
   -3   -3    2    3    3   -0.002690    0.000052
   -3   -3    2    4    3    0.000280    0.000089
   -3   -3    2    1    4   -0.002491    0.000024
   -3   -3    2    2    4    0.003768    0.000015
   -3   -3    2    3    4   -0.004137    0.000058
   -3   -3    2    4    4    0.005170   -0.000081
   -3   -3    3    1    1    0.002610    0.000019
   -3   -3    3    2    1    0.001274    0.000002
   -3   -3    3    3    1    0.000720   -0.000016
   -3   -3    3    4    1    0.001889    0.000040
   -3   -3    3    1    2    0.004213    0.000041
   -3   -3    3    2    2    0.002436    0.000019
   -3   -3    3    3    2    0.001721    0.000014
   -3   -3    3    4    2    0.003379   -0.000045
   -3   -3    3    1    3    0.003457    0.000053
   -3   -3    3    2    3    0.001517    0.000026
   -3   -3    3    3    3    0.001043    0.000020
   -3   -3    3    4    3    0.003407    0.000021
   -3   -3    3    1    4    0.002287   -0.000014
   -3   -3    3    2    4    0.000068    0.000075
   -3   -3    3    3    4   -0.000691    0.000003
   -3   -3    3    4    4    0.001177   -0.000058
   -3   -3    4    1    1   -0.001668   -0.000025
   -3   -3    4    2    1   -0.003121   -0.000021
   -3   -3    4    3    1   -0.000262   -0.000031
   -3   -3    4    4    1   -0.004084   -0.000059
   -3   -3    4    1    2   -0.000067   -0.000051
   -3   -3    4    2    2   -0.001225   -0.000035
   -3   -3    4    3    2    0.002892   -0.000048
   -3   -3    4    4    2    0.001153   -0.000037
   -3   -3    4    1    3   -0.001128   -0.000068
   -3   -3    4    2    3   -0.002888   -0.000051
   -3   -3    4    3    3   -0.000584   -0.000063
   -3   -3    4    4    3   -0.003088   -0.000088
   -3   -3    4    1    4    0.001247   -0.000005
   -3   -3    4    2    4   -0.002652   -0.000059
   -3   -3    4    3    4    0.002631   -0.000070
   -3   -3    4    4    4    0.004100    0.000123
   -3   -2    1    1    1   -0.000553   -0.000061
   -3   -2    1    2    1    0.004860   -0.000057
   -3   -2    1    3    1    0.004472   -0.000110
   -3   -2    1    4    1    0.000699   -0.000131
   -3   -2    1    1    2   -0.000623   -0.000064
   -3   -2    1    2    2    0.003841   -0.000049
   -3   -2    1    3    2    0.002827   -0.000091
   -3   -2    1    4    2    0.000824   -0.000028
   -3   -2    1    1    3   -0.004055   -0.000069
   -3   -2    1    2    3    0.001202   -0.000054
   -3   -2    1    3    3   -0.002858   -0.000099
   -3   -2    1    4    3   -0.009012   -0.000078
   -3   -2    1    1    4   -0.000042   -0.000027
   -3   -2    1    2    4    0.000964   -0.000008
   -3   -2    1    3    4    0.004359   -0.000098
   -3   -2    1    4    4   -0.000368    0.000210
   -3   -2    2    1    1    0.002606   -0.000001
   -3   -2    2    2    1    0.000061    0.000009
   -3   -2    2    3    1   -0.001377    0.000010
   -3   -2    2    4    1   -0.000955   -0.000028
   -3   -2    2    1    2    0.003209   -0.000014
   -3   -2    2    2    2   -0.000636   -0.000003
   -3   -2    2    3    2    0.001863   -0.000007
   -3   -2    2    4    2    0.003232    0.000018
   -3   -2    2    1    3    0.002606   -0.000014
   -3   -2    2    2    3    0.000760    0.000012
   -3   -2    2    3    3    0.004104    0.000005
   -3   -2    2    4    3    0.005456    0.000025
   -3   -2    2    1    4   -0.000976    0.000040
   -3   -2    2    2    4   -0.004400   -0.000036
   -3   -2    2    3    4   -0.000961    0.000001
   -3   -2    2    4    4   -0.006238   -0.000001
   -3   -2    3    1    1    0.000089    0.000027
   -3   -2    3    2    1    0.000013    0.000030
   -3   -2    3    3    1    0.001533    0.000064
   -3   -2    3    4    1    0.005635    0.000069
   -3   -2    3    1    2   -0.005065    0.000050
   -3   -2    3    2    2    0.000174    0.000042
   -3   -2    3    3    2   -0.003013    0.000063
   -3   -2    3    4    2   -0.001741    0.000063
   -3   -2    3    1    3   -0.001096    0.000049
   -3   -2    3    2    3    0.001738    0.000036
   -3   -2    3    3    3   -0.001345    0.000064
   -3   -2    3    4    3    0.003017    0.000062
   -3   -2    3    1    4   -0.004425   -0.000011
   -3   -2    3    2    4    0.004842   -0.000004
   -3   -2    3    3    4   -0.001204    0.000062
   -3   -2    3    4    4    0.000917   -0.000133
   -3   -2    4    1    1   -0.003305    0.000025
   -3   -2    4    2    1   -0.001256    0.000008
   -3   -2    4    3    1    0.000286    0.000012
   -3   -2    4    4    1   -0.001638    0.000038
   -3   -2    4    1    2   -0.004319    0.000053
   -3   -2    4    2    2   -0.005993    0.000023
   -3   -2    4    3    2   -0.002287    0.000040
   -3   -2    4    4    2   -0.003410    0.000010
   -3   -2    4    1    3   -0.004925    0.000050
   -3   -2    4    2    3   -0.003627    0.000015
   -3   -2    4    3    3   -0.001467    0.000030
   -3   -2    4    4    3   -0.000255    0.000029
   -3   -2    4    1    4    0.003242   -0.000042
   -3   -2    4    2    4   -0.000523    0.000058
   -3   -2    4    3    4   -0.001080    0.000022
   -3   -2    4    4    4    0.010826   -0.000078
   -3   -2    5    1    1    0.006959   -0.000042
   -3   -2    5    2    1    0.004639   -0.000051
   -3   -2    5    3    1    0.001228   -0.000083
   -3   -2    5    4    1    0.000842   -0.000072
   -3   -2    5    1    2    0.004667   -0.000058
   -3   -2    5    2    2    0.006989   -0.000051
   -3   -2    5    3    2    0.001269   -0.000090
   -3   -2    5    4    2    0.000816   -0.000052
   -3   -2    5    1    3    0.000372   -0.000055
   -3   -2    5    2    3    0.000372   -0.000054
   -3   -2    5    3    3   -0.000473   -0.000092
   -3   -2    5    4    3   -0.009408   -0.000052
   -3   -2    5    1    4   -0.000289   -0.000017
   -3   -2    5    2    4   -0.000182   -0.000030
   -3   -2    5    3    4   -0.003112   -0.000108
   -3   -2    5    4    4   -0.007907    0.000185
   -3   -1    0    1    1    0.008826    0.000031
   -3   -1    0    2    1    0.003850    0.000035
   -3   -1    0    3    1    0.000535    0.000044
   -3   -1    0    4    1    0.006002    0.000095
   -3   -1    0    1    2    0.004219    0.000031
   -3   -1    0    2    2   -0.001051    0.000013
   -3   -1    0    3    2   -0.000339    0.000032
   -3   -1    0    4    2   -0.001982   -0.000004
   -3   -1    0    1    3    0.007512    0.000070
   -3   -1    0    2    3    0.003899    0.000059
   -3   -1    0    3    3    0.004890    0.000069
   -3   -1    0    4    3    0.011590    0.000069
   -3   -1    0    1    4   -0.000174    0.000049
   -3   -1    0    2    4   -0.001227    0.000022
   -3   -1    0    3    4   -0.002636    0.000081
   -3   -1    0    4    4   -0.009122   -0.000114
   -3   -1    1    1    1   -0.002705    0.000022
   -3   -1    1    2    1   -0.003953    0.000021
   -3   -1    1    3    1   -0.005038    0.000063
   -3   -1    1    4    1    0.001396    0.000071
   -3   -1    1    1    2   -0.006366    0.000022
   -3   -1    1    2    2   -0.006623    0.000021
   -3   -1    1    3    2   -0.002969    0.000068
   -3   -1    1    4    2   -0.000691   -0.000013
   -3   -1    1    1    3   -0.003310   -0.000019
   -3   -1    1    2    3   -0.006567   -0.000031
   -3   -1    1    3    3   -0.002752    0.000017
   -3   -1    1    4    3   -0.000009   -0.000045
   -3   -1    1    1    4    0.001371   -0.000061
   -3   -1    1    2    4   -0.004688    0.000042
   -3   -1    1    3    4    0.002027    0.000057
   -3   -1    1    4    4    0.019246   -0.000060
   -3   -1    2    1    1    0.003286   -0.000023
   -3   -1    2    2    1    0.002342   -0.000024
   -3   -1    2    3    1    0.005126   -0.000043
   -3   -1    2    4    1    0.006636   -0.000063
   -3   -1    2    1    2   -0.007568   -0.000043
   -3   -1    2    2    2   -0.001306   -0.000030
   -3   -1    2    3    2    0.001091   -0.000049
   -3   -1    2    4    2   -0.009419   -0.000031
   -3   -1    2    1    3   -0.009809   -0.000058
   -3   -1    2    2    3   -0.001941   -0.000061
   -3   -1    2    3    3    0.000383   -0.000071
   -3   -1    2    4    3   -0.010971   -0.000078
   -3   -1    2    1    4   -0.001782   -0.000026
   -3   -1    2    2    4    0.000454   -0.000010
   -3   -1    2    3    4    0.006877   -0.000067
   -3   -1    2    4    4   -0.012621    0.000124
   -3   -1    3    1    1    0.006018   -0.000032
   -3   -1    3    2    1    0.003133   -0.000007
   -3   -1    3    3    1    0.001826   -0.000041
   -3   -1    3    4    1    0.003709   -0.000094
   -3   -1    3    1    2    0.006401   -0.000064
   -3   -1    3    2    2    0.006353   -0.000036
   -3   -1    3    3    2    0.001115   -0.000077
   -3   -1    3    4    2    0.002049   -0.000003
   -3   -1    3    1    3    0.003241   -0.000027
   -3   -1    3    2    3    0.004903    0.000010
   -3   -1    3    3    3   -0.000255   -0.000032
   -3   -1    3    4    3   -0.002383   -0.000001
   -3   -1    3    1    4    0.000923    0.000061
   -3   -1    3    2    4    0.003185   -0.000032
   -3   -1    3    3    4   -0.007273   -0.000022
   -3   -1    3    4    4   -0.004949    0.000100
   -3   -1    4    1    1    0.006381    0.000031
   -3   -1    4    2    1    0.000032    0.000045
   -3   -1    4    3    1    0.001760    0.000051
   -3   -1    4    4    1    0.005765    0.000071
   -3   -1    4    1    2    0.004154    0.000062
   -3   -1    4    2    2    0.003471    0.000059
   -3   -1    4    3    2    0.001004    0.000077
   -3   -1    4    4    2    0.006441    0.000022
   -3   -1    4    1    3    0.006125    0.000068
   -3   -1    4    2    3    0.002589    0.000074
   -3   -1    4    3    3    0.000240    0.000082
   -3   -1    4    4    3    0.004472    0.000078
   -3   -1    4    1    4   -0.001125    0.000003
   -3   -1    4    2    4   -0.000190    0.000064
   -3   -1    4    3    4   -0.002767    0.000082
   -3   -1    4    4    4   -0.006549   -0.000173
   -3   -1    5    1    1   -0.012174    0.000044
   -3   -1    5    2    1   -0.007436    0.000043
   -3   -1    5    3    1   -0.006714    0.000061
   -3   -1    5    4    1   -0.001453    0.000035
   -3   -1    5    1    2   -0.007433    0.000072
   -3   -1    5    2    2   -0.012168    0.000058
   -3   -1    5    3    2   -0.006714    0.000092
   -3   -1    5    4    2   -0.001470    0.000023
   -3   -1    5    1    3   -0.008322    0.000022
   -3   -1    5    2    3   -0.008326    0.000011
   -3   -1    5    3    3   -0.002814    0.000049
   -3   -1    5    4    3    0.007569   -0.000021
   -3   -1    5    1    4   -0.001359   -0.000056
   -3   -1    5    2    4   -0.001330    0.000030
   -3   -1    5    3    4    0.009677    0.000040
   -3   -1    5    4    4    0.028656   -0.000151
   -3    0   -1    1    1    0.005012   -0.000008
   -3    0   -1    2    1   -0.001662    0.000006
   -3    0   -1    3    1   -0.004298    0.000009
   -3    0   -1    4    1   -0.003507   -0.000029
   -3    0   -1    1    2    0.000765   -0.000027
   -3    0   -1    2    2   -0.003892   -0.000011
   -3    0   -1    3    2   -0.002534    0.000005
   -3    0   -1    4    2   -0.000694    0.000017
   -3    0   -1    1    3    0.004838   -0.000084
   -3    0   -1    2    3    0.003596   -0.000050
   -3    0   -1    3    3    0.001261   -0.000039
   -3    0   -1    4    3    0.001723   -0.000063
   -3    0   -1    1    4    0.011046   -0.000046
   -3    0   -1    2    4   -0.001136   -0.000050
   -3    0   -1    3    4    0.000923   -0.000037
   -3    0   -1    4    4    0.001162    0.000058
   -3    0    0    1    1   -0.011459   -0.000079
   -3    0    0    2    1    0.005616   -0.000078
   -3    0    0    3    1    0.015393   -0.000077
   -3    0    0    4    1    0.008120   -0.000074
   -3    0    0    1    2   -0.006586   -0.000079
   -3    0    0    2    2   -0.001509   -0.000066
   -3    0    0    3    2    0.006743   -0.000089
   -3    0    0    4    2    0.002211    0.000027
   -3    0    0    1    3   -0.016987   -0.000072
   -3    0    0    2    3   -0.005599   -0.000059
   -3    0    0    3    3   -0.009455   -0.000081
   -3    0    0    4    3   -0.012458    0.000002
   -3    0    0    1    4   -0.015184    0.000020
   -3    0    0    2    4    0.001113   -0.000070
   -3    0    0    3    4    0.004549   -0.000076
   -3    0    0    4    4   -0.009860    0.000226
   -3    0    1    1    1   -0.008839    0.000072
   -3    0    1    2    1   -0.006329    0.000048
   -3    0    1    3    1   -0.010317    0.000048
   -3    0    1    4    1   -0.014996    0.000077
   -3    0    1    1    2    0.015062    0.000103
   -3    0    1    2    2    0.002716    0.000063
   -3    0    1    3    2   -0.003546    0.000060
   -3    0    1    4    2    0.007871   -0.000005
   -3    0    1    1    3    0.014256    0.000156
   -3    0    1    2    3    0.001270    0.000118
   -3    0    1    3    3    0.008424    0.000117
   -3    0    1    4    3    0.015420    0.000108
   -3    0    1    1    4    0.011408    0.000085
   -3    0    1    2    4   -0.003365    0.000041
   -3    0    1    3    4    0.002563    0.000060
   -3    0    1    4    4    0.007303   -0.000252
   -3    0    2    1    1   -0.011933    0.000016
   -3    0    2    2    1   -0.007350    0.000013
   -3    0    2    3    1   -0.010553    0.000008
   -3    0    2    4    1   -0.012518    0.000042
   -3    0    2    1    2    0.007332    0.000022
   -3    0    2    2    2    0.007963    0.000023
   -3    0    2    3    2   -0.003405    0.000031
   -3    0    2    4    2    0.010685   -0.000027
   -3    0    2    1    3    0.007602    0.000016
   -3    0    2    2    3   -0.005544    0.000007
   -3    0    2    3    3   -0.005202    0.000015
   -3    0    2    4    3    0.005760   -0.000039
   -3    0    2    1    4    0.010128   -0.000037
   -3    0    2    2    4    0.009344    0.000041
   -3    0    2    3    4   -0.002677    0.000016
   -3    0    2    4    4    0.018775   -0.000055
   -3    0    3    1    1   -0.016079   -0.000047
   -3    0    3    2    1    0.004874   -0.000048
   -3    0    3    3    1   -0.000737   -0.000028
   -3    0    3    4    1   -0.001448   -0.000024
   -3    0    3    1    2   -0.017266   -0.000064
   -3    0    3    2    2   -0.016082   -0.000055
   -3    0    3    3    2   -0.008788   -0.000028
   -3    0    3    4    2   -0.008175   -0.000007
   -3    0    3    1    3   -0.008773   -0.000115
   -3    0    3    2    3   -0.000728   -0.000102
   -3    0    3    3    3   -0.003628   -0.000080
   -3    0    3    4    3    0.002897   -0.000073
   -3    0    3    1    4   -0.008206   -0.000038
   -3    0    3    2    4   -0.001444   -0.000058
   -3    0    3    3    4    0.002883   -0.000047
   -3    0    3    4    4    0.003505    0.000183
   -3    0    4    1    1    0.006320   -0.000026
   -3    0    4    2    1    0.000210   -0.000013
   -3    0    4    3    1    0.007211   -0.000016
   -3    0    4    4    1    0.000551   -0.000040
   -3    0    4    1    2    0.004096   -0.000061
   -3    0    4    2    2    0.003597   -0.000038
   -3    0    4    3    2    0.009789   -0.000060
   -3    0    4    4    2   -0.000520   -0.000010
   -3    0    4    1    3    0.001479   -0.000042
   -3    0    4    2    3    0.001162   -0.000021
   -3    0    4    3    3    0.004241   -0.000037
   -3    0    4    4    3   -0.002099   -0.000025
   -3    0    4    1    4    0.002644    0.000038
   -3    0    4    2    4    0.001953   -0.000058
   -3    0    4    3    4    0.005233   -0.000035
   -3    0    4    4    4   -0.010615    0.000101
   -3    0    5    1    1    0.007749    0.000051
   -3    0    5    2    1    0.005322    0.000054
   -3    0    5    3    1    0.001620    0.000042
   -3    0    5    4    1   -0.001041    0.000023
   -3    0    5    1    2    0.005300    0.000054
   -3    0    5    2    2    0.007728    0.000061
   -3    0    5    3    2    0.001588    0.000045
   -3    0    5    4    2   -0.001039    0.000003
   -3    0    5    1    3    0.002952    0.000109
   -3    0    5    2    3    0.002961    0.000109
   -3    0    5    3    3   -0.000919    0.000092
   -3    0    5    4    3   -0.001421    0.000075
   -3    0    5    1    4    0.000446    0.000063
   -3    0    5    2    4    0.000321    0.000082
   -3    0    5    3    4   -0.008969    0.000092
   -3    0    5    4    4   -0.008989   -0.000204
   -3    1   -2    1    1   -0.004913    0.000051
   -3    1   -2    2    1   -0.000747    0.000060
   -3    1   -2    3    1   -0.001265    0.000073
   -3    1   -2    4    1    0.002076    0.000065
   -3    1   -2    1    2   -0.002043    0.000063
   -3    1   -2    2    2    0.003419    0.000054
   -3    1   -2    3    2   -0.000732    0.000071
   -3    1   -2    4    2   -0.000176    0.000018
   -3    1   -2    1    3   -0.004883    0.000084
   -3    1   -2    2    3   -0.001113    0.000069
   -3    1   -2    3    3   -0.006011    0.000085
   -3    1   -2    4    3    0.001695    0.000057
   -3    1   -2    1    4   -0.005304    0.000055
   -3    1   -2    2    4    0.004341    0.000043
   -3    1   -2    3    4   -0.003902    0.000101
   -3    1   -2    4    4    0.007568   -0.000189
   -3    1   -1    1    1    0.006572    0.000028
   -3    1   -1    2    1    0.005825    0.000015
   -3    1   -1    3    1    0.003180   -0.000021
   -3    1   -1    4    1    0.003626   -0.000022
   -3    1   -1    1    2    0.002711    0.000054
   -3    1   -1    2    2    0.002580    0.000054
   -3    1   -1    3    2    0.003498    0.000035
   -3    1   -1    4    2   -0.005664   -0.000015
   -3    1   -1    1    3    0.005549    0.000072
   -3    1   -1    2    3    0.003269    0.000059
   -3    1   -1    3    3    0.005498    0.000038
   -3    1   -1    4    3    0.000143   -0.000001
   -3    1   -1    1    4    0.000788   -0.000047
   -3    1   -1    2    4   -0.002589    0.000088
   -3    1   -1    3    4    0.004235    0.000014
   -3    1   -1    4    4   -0.007484   -0.000121
   -3    1    0    1    1   -0.013987   -0.000036
   -3    1    0    2    1   -0.015669   -0.000042
   -3    1    0    3    1   -0.013847   -0.000038
   -3    1    0    4    1   -0.016277   -0.000091
   -3    1    0    1    2    0.005510   -0.000047
   -3    1    0    2    2    0.004189   -0.000028
   -3    1    0    3    2    0.005117   -0.000034
   -3    1    0    4    2    0.002383   -0.000006
   -3    1    0    1    3    0.005701   -0.000098
   -3    1    0    2    3    0.002370   -0.000074
   -3    1    0    3    3    0.004153   -0.000069
   -3    1    0    4    3   -0.000770   -0.000072
   -3    1    0    1    4    0.018053   -0.000044
   -3    1    0    2    4    0.009976   -0.000031
   -3    1    0    3    4   -0.001007   -0.000063
   -3    1    0    4    4    0.015249    0.000133
   -3    1    1    1    1    0.051063   -0.000023
   -3    1    1    2    1    0.019649   -0.000004
   -3    1    1    3    1    0.027884    0.000006
   -3    1    1    4    1    0.027819    0.000011
   -3    1    1    1    2   -0.020215   -0.000058
   -3    1    1    2    2   -0.009553   -0.000032
   -3    1    1    3    2   -0.003708   -0.000039
   -3    1    1    4    2   -0.019526    0.000040
   -3    1    1    1    3   -0.014518   -0.000061
   -3    1    1    2    3   -0.002787   -0.000029
   -3    1    1    3    3   -0.001897   -0.000036
   -3    1    1    4    3   -0.014165    0.000014
   -3    1    1    1    4   -0.032129    0.000002
   -3    1    1    2    4   -0.013975   -0.000087
   -3    1    1    3    4   -0.009840   -0.000027
   -3    1    1    4    4   -0.044760    0.000091
   -3    1    2    1    1   -0.012633    0.000023
   -3    1    2    2    1   -0.007878    0.000020
   -3    1    2    3    1   -0.015581    0.000030
   -3    1    2    4    1   -0.010670    0.000051
   -3    1    2    1    2    0.007136    0.000041
   -3    1    2    2    2    0.008082    0.000024
   -3    1    2    3    2    0.005035    0.000028
   -3    1    2    4    2    0.003507    0.000034
   -3    1    2    1    3    0.003693    0.000071
   -3    1    2    2    3    0.007621    0.000062
   -3    1    2    3    3    0.003565    0.000062
   -3    1    2    4    3    0.000507    0.000084
   -3    1    2    1    4    0.012627    0.000023
   -3    1    2    2    4    0.001336    0.000036
   -3    1    2    3    4    0.007316    0.000056
   -3    1    2    4    4    0.010590   -0.000109
   -3    1    3    1    1    0.006444    0.000053
   -3    1    3    2    1    0.003209    0.000023
   -3    1    3    3    1    0.005035    0.000007
   -3    1    3    4    1    0.003276    0.000047
   -3    1    3    1    2    0.006534    0.000078
   -3    1    3    2    2    0.006115    0.000050
   -3    1    3    3    2    0.003409    0.000043
   -3    1    3    4    2    0.000966   -0.000032
   -3    1    3    1    3    0.001244    0.000091
   -3    1    3    2    3    0.001938    0.000056
   -3    1    3    3    3   -0.000087    0.000048
   -3    1    3    4    3   -0.007138    0.000034
   -3    1    3    1    4    0.002130   -0.000029
   -3    1    3    2    4    0.003806    0.000079
   -3    1    3    3    4   -0.002204   -0.000009
   -3    1    3    4    4   -0.005305   -0.000151
   -3    1    4    1    1   -0.003353   -0.000039
   -3    1    4    2    1   -0.001031   -0.000055
   -3    1    4    3    1   -0.003120   -0.000061
   -3    1    4    4    1    0.001868   -0.000061
   -3    1    4    1    2   -0.004066   -0.000055
   -3    1    4    2    2   -0.005491   -0.000057
   -3    1    4    3    2   -0.004162   -0.000066
   -3    1    4    4    2    0.001502   -0.000021
   -3    1    4    1    3   -0.002248   -0.000072
   -3    1    4    2    3   -0.002799   -0.000072
   -3    1    4    3    3   -0.000013   -0.000081
   -3    1    4    4    3   -0.001756   -0.000074
   -3    1    4    1    4   -0.001671    0.000001
   -3    1    4    2    4   -0.002196   -0.000084
   -3    1    4    3    4    0.000860   -0.000078
   -3    1    4    4    4    0.008919    0.000178
   -3    1    5    1    1   -0.001603   -0.000045
   -3    1    5    2    1   -0.001614   -0.000037
   -3    1    5    3    1   -0.000034   -0.000009
   -3    1    5    4    1   -0.000150    0.000007
   -3    1    5    1    2   -0.001621   -0.000059
   -3    1    5    2    2   -0.001608   -0.000059
   -3    1    5    3    2   -0.000041   -0.000036
   -3    1    5    4    2   -0.000118    0.000014
   -3    1    5    1    3   -0.000509   -0.000069
   -3    1    5    2    3   -0.000510   -0.000062
   -3    1    5    3    3    0.001713   -0.000043
   -3    1    5    4    3    0.001523   -0.000015
   -3    1    5    1    4   -0.004683    0.000015
   -3    1    5    2    4   -0.004688   -0.000071
   -3    1    5    3    4   -0.000979   -0.000013
   -3    1    5    4    4   -0.009454    0.000147
   -3    2   -3    1    1    0.000638   -0.000039
   -3    2   -3    2    1    0.000391   -0.000050
   -3    2   -3    3    1    0.001490   -0.000087
   -3    2   -3    4    1    0.001509   -0.000078
   -3    2   -3    1    2    0.000414   -0.000050
   -3    2   -3    2    2    0.000650   -0.000047
   -3    2   -3    3    2    0.001519   -0.000089
   -3    2   -3    4    2    0.001483   -0.000056
   -3    2   -3    1    3   -0.001966   -0.000042
   -3    2   -3    2    3   -0.001967   -0.000044
   -3    2   -3    3    3   -0.001071   -0.000080
   -3    2   -3    4    3   -0.002729   -0.000059
   -3    2   -3    1    4   -0.001133   -0.000020
   -3    2   -3    2    4   -0.001047   -0.000034
   -3    2   -3    3    4    0.002670   -0.000114
   -3    2   -3    4    4    0.000406    0.000166
   -3    2   -2    1    1    0.004287   -0.000023
   -3    2   -2    2    1    0.001412   -0.000027
   -3    2   -2    3    1    0.000038   -0.000015
   -3    2   -2    4    1    0.000633   -0.000013
   -3    2   -2    1    2    0.001448   -0.000041
   -3    2   -2    2    2   -0.001275   -0.000052
   -3    2   -2    3    2    0.002013   -0.000056
   -3    2   -2    4    2   -0.000830    0.000007
   -3    2   -2    1    3    0.002604   -0.000020
   -3    2   -2    2    3    0.002238   -0.000016
   -3    2   -2    3    3    0.004776   -0.000020
   -3    2   -2    4    3    0.001468    0.000019
   -3    2   -2    1    4    0.003154    0.000090
   -3    2   -2    2    4   -0.001470   -0.000069
   -3    2   -2    3    4    0.002386   -0.000004
   -3    2   -2    4    4   -0.007952    0.000095
   -3    2   -1    1    1   -0.002276   -0.000002
   -3    2   -1    2    1    0.005809    0.000012
   -3    2   -1    3    1    0.002808    0.000050
   -3    2   -1    4    1    0.004209    0.000103
   -3    2   -1    1    2   -0.004251    0.000001
   -3    2   -1    2    2   -0.003935   -0.000007
   -3    2   -1    3    2    0.001797    0.000028
   -3    2   -1    4    2    0.001839    0.000011
   -3    2   -1    1    3   -0.013243    0.000003
   -3    2   -1    2    3   -0.006518   -0.000006
   -3    2   -1    3    3   -0.002415    0.000026
   -3    2   -1    4    3   -0.003678    0.000036
   -3    2   -1    1    4   -0.018080   -0.000011
   -3    2   -1    2    4   -0.004639    0.000016
   -3    2   -1    3    4   -0.002027    0.000063
   -3    2   -1    4    4   -0.001632   -0.000017
   -3    2    0    1    1   -0.011662    0.000103
   -3    2    0    2    1   -0.013167    0.000102
   -3    2    0    3    1   -0.013688    0.000088
   -3    2    0    4    1   -0.015043    0.000068
   -3    2    0    1    2    0.006748    0.000104
   -3    2    0    2    2    0.005322    0.000089
   -3    2    0    3    2   -0.005599    0.000101
   -3    2    0    4    2    0.009159   -0.000024
   -3    2    0    1    3    0.010680    0.000111
   -3    2    0    2    3    0.004463    0.000085
   -3    2    0    3    3   -0.002087    0.000095
   -3    2    0    4    3    0.000912    0.000009
   -3    2    0    1    4    0.018132   -0.000033
   -3    2    0    2    4    0.008853    0.000077
   -3    2    0    3    4   -0.002964    0.000055
   -3    2    0    4    4    0.018031   -0.000287
   -3    2    1    1    1   -0.007535   -0.000074
   -3    2    1    2    1   -0.006423   -0.000073
   -3    2    1    3    1   -0.008317   -0.000114
   -3    2    1    4    1   -0.010792   -0.000168
   -3    2    1    1    2    0.015511   -0.000067
   -3    2    1    2    2    0.002344   -0.000056
   -3    2    1    3    2    0.011502   -0.000088
   -3    2    1    4    2    0.000844   -0.000026
   -3    2    1    1    3    0.005755   -0.000077
   -3    2    1    2    3   -0.004653   -0.000064
   -3    2    1    3    3    0.004741   -0.000101
   -3    2    1    4    3    0.001244   -0.000094
   -3    2    1    1    4    0.012845   -0.000012
   -3    2    1    2    4   -0.003262   -0.000006
   -3    2    1    3    4    0.010885   -0.000074
   -3    2    1    4    4    0.010054    0.000232
   -3    2    2    1    1    0.001190   -0.000025
   -3    2    2    2    1    0.001619   -0.000022
   -3    2    2    3    1    0.006350   -0.000003
   -3    2    2    4    1    0.000165   -0.000039
   -3    2    2    1    2   -0.008812   -0.000019
   -3    2    2    2    2   -0.001595   -0.000024
   -3    2    2    3    2   -0.006759   -0.000010
   -3    2    2    4    2   -0.006462    0.000017
   -3    2    2    1    3    0.005525   -0.000028
   -3    2    2    2    3    0.007025   -0.000018
   -3    2    2    3    3    0.002215   -0.000012
   -3    2    2    4    3    0.005945    0.000010
   -3    2    2    1    4   -0.011004    0.000057
   -3    2    2    2    4   -0.002904   -0.000050
   -3    2    2    3    4   -0.009936    0.000016
   -3    2    2    4    4   -0.012068    0.000061
   -3    2    3    1    1    0.000164    0.000024
   -3    2    3    2    1    0.000008    0.000030
   -3    2    3    3    1    0.001729    0.000061
   -3    2    3    4    1    0.004835    0.000076
   -3    2    3    1    2   -0.005088    0.000038
   -3    2    3    2    2    0.000070    0.000036
   -3    2    3    3    2   -0.001129    0.000057
   -3    2    3    4    2   -0.004445    0.000054
   -3    2    3    1    3   -0.003006    0.000033
   -3    2    3    2    3    0.001538    0.000021
   -3    2    3    3    3   -0.001349    0.000055
   -3    2    3    4    3   -0.001198    0.000053
   -3    2    3    1    4   -0.001740   -0.000003
   -3    2    3    2    4    0.005652    0.000020
   -3    2    3    3    4    0.003007    0.000070
   -3    2    3    4    4    0.000950   -0.000116
   -3    2    4    1    1   -0.001209    0.000034
   -3    2    4    2    1   -0.002834    0.000029
   -3    2    4    3    1   -0.004004    0.000032
   -3    2    4    4    1   -0.000794    0.000042
   -3    2    4    1    2    0.000294    0.000048
   -3    2    4    2    2   -0.000942    0.000037
   -3    2    4    3    2   -0.001698    0.000047
   -3    2    4    4    2    0.004535    0.000013
   -3    2    4    1    3   -0.000568    0.000040
   -3    2    4    2    3   -0.001865    0.000022
   -3    2    4    3    3   -0.002948    0.000036
   -3    2    4    4    3    0.002447    0.000030
   -3    2    4    1    4    0.001987   -0.000049
   -3    2    4    2    4   -0.002105    0.000068
   -3    2    4    3    4   -0.003805    0.000028
   -3    2    4    4    4    0.005722   -0.000107
   -3    3   -4    1    1    0.000364    0.000020
   -3    3   -4    2    1    0.001969    0.000029
   -3    3   -4    3    1    0.001241    0.000037
   -3    3   -4    4    1    0.000300    0.000066
   -3    3   -4    1    2    0.000288    0.000044
   -3    3   -4    2    2    0.001191    0.000041
   -3    3   -4    3    2   -0.001200    0.000055
   -3    3   -4    4    2   -0.002269    0.000022
   -3    3   -4    1    3    0.001574    0.000052
   -3    3   -4    2    3    0.001344    0.000057
   -3    3   -4    3    3    0.001828    0.000063
   -3    3   -4    4    3    0.002192    0.000079
   -3    3   -4    1    4   -0.000947    0.000020
   -3    3   -4    2    4    0.002005    0.000059
   -3    3   -4    3    4    0.000176    0.000078
   -3    3   -4    4    4   -0.005988   -0.000124
   -3    3   -3    1    1   -0.002724    0.000040
   -3    3   -3    2    1   -0.003074    0.000044
   -3    3   -3    3    1   -0.004066    0.000061
   -3    3   -3    4    1   -0.001970    0.000052
   -3    3   -3    1    2   -0.003071    0.000058
   -3    3   -3    2    2   -0.002717    0.000051
   -3    3   -3    3    2   -0.004062    0.000082
   -3    3   -3    4    2   -0.001985    0.000034
   -3    3   -3    1    3   -0.000452    0.000013
   -3    3   -3    2    3   -0.000462    0.000010
   -3    3   -3    3    3   -0.002404    0.000033
   -3    3   -3    4    3    0.000593   -0.000004
   -3    3   -3    1    4    0.005515   -0.000055
   -3    3   -3    2    4    0.005540    0.000024
   -3    3   -3    3    4   -0.000044    0.000037
   -3    3   -3    4    4    0.015113   -0.000123
   -3    3   -2    1    1    0.004674   -0.000031
   -3    3   -2    2    1    0.001514   -0.000038
   -3    3   -2    3    1    0.003720   -0.000052
   -3    3   -2    4    1    0.001396   -0.000069
   -3    3   -2    1    2    0.001165   -0.000049
   -3    3   -2    2    2   -0.001669   -0.000039
   -3    3   -2    3    2    0.000402   -0.000050
   -3    3   -2    4    2    0.001795   -0.000012
   -3    3   -2    1    3    0.002874   -0.000062
   -3    3   -2    2    3    0.000327   -0.000067
   -3    3   -2    3    3    0.000395   -0.000076
   -3    3   -2    4    3    0.000335   -0.000062
   -3    3   -2    1    4    0.000579   -0.000062
   -3    3   -2    2    4   -0.003879   -0.000027
   -3    3   -2    3    4    0.000248   -0.000093
   -3    3   -2    4    4   -0.003565    0.000146
   -3    3   -1    1    1    0.003509   -0.000032
   -3    3   -1    2    1    0.003422   -0.000049
   -3    3   -1    3    1    0.001277   -0.000046
   -3    3   -1    4    1    0.002073   -0.000050
   -3    3   -1    1    2    0.001262   -0.000042
   -3    3   -1    2    2    0.001610   -0.000048
   -3    3   -1    3    2   -0.004816   -0.000071
   -3    3   -1    4    2    0.002019   -0.000017
   -3    3   -1    1    3   -0.000398   -0.000012
   -3    3   -1    2    3   -0.001240   -0.000022
   -3    3   -1    3    3   -0.003630   -0.000032
   -3    3   -1    4    3    0.000997    0.000011
   -3    3   -1    1    4    0.002240    0.000105
   -3    3   -1    2    4    0.001237   -0.000058
   -3    3   -1    3    4   -0.005255   -0.000031
   -3    3   -1    4    4    0.005678    0.000112
   -3    3    0    1    1   -0.007985    0.000001
   -3    3    0    2    1    0.007802    0.000016
   -3    3    0    3    1    0.006677    0.000017
   -3    3    0    4    1    0.012567    0.000090
   -3    3    0    1    2   -0.004398    0.000027
   -3    3    0    2    2    0.000019    0.000015
   -3    3    0    3    2    0.003348    0.000024
   -3    3    0    4    2   -0.001433    0.000009
   -3    3    0    1    3   -0.002277    0.000055
   -3    3    0    2    3    0.006149    0.000048
   -3    3    0    3    3    0.002609    0.000052
   -3    3    0    4    3    0.005700    0.000062
   -3    3    0    1    4   -0.018811    0.000053
   -3    3    0    2    4   -0.003586    0.000026
   -3    3    0    3    4   -0.004411    0.000077
   -3    3    0    4    4   -0.026927   -0.000068
   -3    3    1    1    1   -0.003505    0.000027
   -3    3    1    2    1   -0.004447    0.000033
   -3    3    1    3    1   -0.004307    0.000057
   -3    3    1    4    1    0.001578    0.000076
   -3    3    1    1    2   -0.006870    0.000023
   -3    3    1    2    2   -0.006953    0.000028
   -3    3    1    3    2   -0.008794    0.000058
   -3    3    1    4    2    0.005261   -0.000009
   -3    3    1    1    3   -0.006450   -0.000012
   -3    3    1    2    3   -0.010331   -0.000016
   -3    3    1    3    3   -0.006621    0.000020
   -3    3    1    4    3    0.001881   -0.000018
   -3    3    1    1    4    0.001349   -0.000078
   -3    3    1    2    4   -0.003700    0.000041
   -3    3    1    3    4   -0.001357    0.000023
   -3    3    1    4    4    0.024246   -0.000075
   -3    3    2    1    1    0.003793    0.000000
   -3    3    2    2    1    0.000658   -0.000001
   -3    3    2    3    1    0.003340   -0.000020
   -3    3    2    4    1   -0.001332   -0.000053
   -3    3    2    1    2    0.003811   -0.000026
   -3    3    2    2    2   -0.000384   -0.000014
   -3    3    2    3    2    0.004110   -0.000036
   -3    3    2    4    2    0.002537   -0.000036
   -3    3    2    1    3   -0.000338   -0.000036
   -3    3    2    2    3   -0.002353   -0.000031
   -3    3    2    3    3   -0.000341   -0.000048
   -3    3    2    4    3   -0.000847   -0.000073
   -3    3    2    1    4    0.000992   -0.000039
   -3    3    2    2    4   -0.003513   -0.000021
   -3    3    2    3    4    0.002320   -0.000080
   -3    3    2    4    4   -0.003232    0.000062
   -3    3    3    1    1    0.002376   -0.000034
   -3    3    3    2    1    0.001218   -0.000016
   -3    3    3    3    1    0.001417   -0.000046
   -3    3    3    4    1   -0.000014   -0.000089
   -3    3    3    1    2    0.004141   -0.000053
   -3    3    3    2    2    0.002558   -0.000032
   -3    3    3    3    2    0.003368   -0.000070
   -3    3    3    4    2    0.002229   -0.000008
   -3    3    3    1    3    0.001617   -0.000014
   -3    3    3    2    3    0.000633    0.000017
   -3    3    3    3    3    0.000916   -0.000027
   -3    3    3    4    3   -0.000849   -0.000010
   -3    3    3    1    4    0.003327    0.000064
   -3    3    3    2    4    0.001778   -0.000031
   -3    3    3    3    4    0.003250   -0.000015
   -3    3    3    4    4    0.001416    0.000093
   -3    4   -4    1    1    0.000185   -0.000021
   -3    4   -4    2    1    0.002025   -0.000020
   -3    4   -4    3    1    0.001105   -0.000023
   -3    4   -4    4    1    0.001130   -0.000053
   -3    4   -4    1    2    0.000250   -0.000041
   -3    4   -4    2    2    0.001474   -0.000031
   -3    4   -4    3    2    0.001183   -0.000047
   -3    4   -4    4    2   -0.002357    0.000001
   -3    4   -4    1    3    0.000222   -0.000027
   -3    4   -4    2    3    0.001841   -0.000024
   -3    4   -4    3    3    0.000652   -0.000030
   -3    4   -4    4    3   -0.001290   -0.000027
   -3    4   -4    1    4   -0.002507    0.000034
   -3    4   -4    2    4    0.000468   -0.000050
   -3    4   -4    3    4    0.001948   -0.000026
   -3    4   -4    4    4   -0.004917    0.000082
   -3    4   -3    1    1    0.001210    0.000031
   -3    4   -3    2    1    0.000964    0.000030
   -3    4   -3    3    1    0.000050    0.000023
   -3    4   -3    4    1   -0.000131    0.000031
   -3    4   -3    1    2    0.000943    0.000036
   -3    4   -3    2    2    0.001206    0.000040
   -3    4   -3    3    2    0.000025    0.000029
   -3    4   -3    4    2   -0.000111    0.000013
   -3    4   -3    1    3    0.002732    0.000086
   -3    4   -3    2    3    0.002750    0.000087
   -3    4   -3    3    3    0.000920    0.000081
   -3    4   -3    4    3    0.003364    0.000080
   -3    4   -3    1    4   -0.000054    0.000056
   -3    4   -3    2    4   -0.000159    0.000067
   -3    4   -3    3    4   -0.001258    0.000087
   -3    4   -3    4    4   -0.002713   -0.000153
   -3    4   -2    1    1   -0.004998    0.000003
   -3    4   -2    2    1   -0.001601    0.000013
   -3    4   -2    3    1    0.001402    0.000001
   -3    4   -2    4    1    0.001717    0.000016
   -3    4   -2    1    2   -0.002074    0.000032
   -3    4   -2    2    2    0.002447    0.000046
   -3    4   -2    3    2   -0.001627    0.000041
   -3    4   -2    4    2    0.000235   -0.000017
[...]
    4   -1   -1    2    1   -0.005780    0.000019
    4   -1   -1    3    1   -0.010541    0.000008
    4   -1   -1    4    1   -0.006415    0.000061
    4   -1   -1    1    2    0.001319    0.000033
    4   -1   -1    2    2    0.000699    0.000020
    4   -1   -1    3    2   -0.004782    0.000034
    4   -1   -1    4    2    0.004850   -0.000038
    4   -1   -1    1    3    0.011819    0.000036
    4   -1   -1    2    3   -0.006084    0.000017
    4   -1   -1    3    3   -0.012496    0.000029
    4   -1   -1    4    3   -0.005098    0.000002
    4   -1   -1    1    4    0.005752   -0.000032
    4   -1   -1    2    4    0.002003    0.000045
    4   -1   -1    3    4   -0.006185    0.000048
    4   -1   -1    4    4    0.006224   -0.000073
    4   -1    0    1    1   -0.000534   -0.000063
    4   -1    0    2    1   -0.003167   -0.000042
    4   -1    0    3    1    0.004338   -0.000052
    4   -1    0    4    1    0.009827   -0.000057
    4   -1    0    1    2   -0.003979   -0.000071
    4   -1    0    2    2   -0.006510   -0.000037
    4   -1    0    3    2    0.002835   -0.000044
    4   -1    0    4    2    0.001253    0.000012
    4   -1    0    1    3   -0.006747   -0.000128
    4   -1    0    2    3   -0.004803   -0.000088
    4   -1    0    3    3    0.005232   -0.000092
    4   -1    0    4    3    0.001351   -0.000101
    4   -1    0    1    4   -0.004134   -0.000134
    4   -1    0    2    4   -0.003033   -0.000019
    4   -1    0    3    4    0.007578   -0.000073
    4   -1    0    4    4    0.005354    0.000193
    4   -1    1    1    1    0.004273    0.000036
    4   -1    1    2    1   -0.002670    0.000048
    4   -1    1    3    1    0.001721    0.000048
    4   -1    1    4    1   -0.001950   -0.000044
    4   -1    1    1    2    0.004235    0.000043
    4   -1    1    2    2   -0.002764    0.000044
    4   -1    1    3    2    0.002754    0.000031
    4   -1    1    4    2   -0.003394    0.000062
    4   -1    1    1    3    0.006267    0.000038
    4   -1    1    2    3   -0.000466    0.000056
    4   -1    1    3    3    0.005730    0.000040
    4   -1    1    4    3    0.004543    0.000056
    4   -1    1    1    4    0.002676    0.000049
    4   -1    1    2    4   -0.007902   -0.000020
    4   -1    1    3    4   -0.002825   -0.000005
    4   -1    1    4    4   -0.008373   -0.000121
    4    0   -4    1    1   -0.013161   -0.000000
    4    0   -4    2    1   -0.004457   -0.000019
    4    0   -4    3    1   -0.005152   -0.000040
    4    0   -4    4    1   -0.001094    0.000002
    4    0   -4    1    2   -0.004457    0.000019
    4    0   -4    2    2   -0.013144    0.000000
    4    0   -4    3    2   -0.005143   -0.000015
    4    0   -4    4    2   -0.001105   -0.000051
    4    0   -4    1    3   -0.005152    0.000040
    4    0   -4    2    3   -0.005143    0.000015
    4    0   -4    3    3   -0.004061    0.000000
    4    0   -4    4    3    0.005715   -0.000007
    4    0   -4    1    4   -0.001094   -0.000002
    4    0   -4    2    4   -0.001105    0.000051
    4    0   -4    3    4    0.005715    0.000007
    4    0   -4    4    4    0.021213    0.000000
    4    0   -3    1    1    0.003656   -0.000044
    4    0   -3    2    1    0.004144   -0.000064
    4    0   -3    3    1    0.009895   -0.000081
    4    0   -3    4    1   -0.000418   -0.000030
    4    0   -3    1    2    0.000286   -0.000045
    4    0   -3    2    2    0.006369   -0.000048
    4    0   -3    3    2    0.007341   -0.000065
    4    0   -3    4    2    0.000618   -0.000030
    4    0   -3    1    3    0.001193   -0.000060
    4    0   -3    2    3    0.001492   -0.000063
    4    0   -3    3    3    0.004329   -0.000080
    4    0   -3    4    3   -0.002067   -0.000055
    4    0   -3    1    4    0.001913   -0.000066
    4    0   -3    2    4    0.002661   -0.000035
    4    0   -3    3    4    0.005345   -0.000099
    4    0   -3    4    4   -0.010811    0.000171
    4    0   -2    1    1   -0.002967    0.000016
    4    0   -2    2    1    0.002941    0.000042
    4    0   -2    3    1    0.004270    0.000068
    4    0   -2    4    1    0.005974    0.000006
    4    0   -2    1    2   -0.009245   -0.000017
    4    0   -2    2    2   -0.002232   -0.000001
    4    0   -2    3    2   -0.003704    0.000014
    4    0   -2    4    2   -0.000449    0.000046
    4    0   -2    1    3   -0.008935   -0.000034
    4    0   -2    2    3   -0.002938   -0.000002
    4    0   -2    3    3   -0.000539    0.000012
    4    0   -2    4    3   -0.000374    0.000002
    4    0   -2    1    4   -0.007326    0.000059
    4    0   -2    2    4    0.000405   -0.000067
    4    0   -2    3    4    0.000155    0.000006
    4    0   -2    4    4    0.009018   -0.000027
    4    0   -1    1    1    0.004434    0.000010
    4    0   -1    2    1    0.010360    0.000032
    4    0   -1    3    1    0.007355    0.000052
    4    0   -1    4    1    0.001870    0.000053
    4    0   -1    1    2   -0.000263    0.000009
    4    0   -1    2    2    0.002148    0.000009
    4    0   -1    3    2    0.002169    0.000031
    4    0   -1    4    2   -0.003392    0.000002
    4    0   -1    1    3    0.000377    0.000041
    4    0   -1    2    3    0.007458    0.000034
    4    0   -1    3    3    0.009519    0.000049
    4    0   -1    4    3    0.004014    0.000049
    4    0   -1    1    4   -0.002336    0.000051
    4    0   -1    2    4    0.002095    0.000035
    4    0   -1    3    4    0.005026    0.000084
    4    0   -1    4    4   -0.012558   -0.000069
    4    0    0    1    1   -0.015636   -0.000000
    4    0    0    2    1   -0.002105   -0.000027
    4    0    0    3    1   -0.007576   -0.000040
    4    0    0    4    1   -0.002448    0.000009
    4    0    0    1    2   -0.002105    0.000027
    4    0    0    2    2    0.003997   -0.000000
    4    0    0    3    2   -0.002861    0.000000
    4    0    0    4    2    0.011005   -0.000061
    4    0    0    1    3   -0.007576    0.000040
    4    0    0    2    3   -0.002861   -0.000000
    4    0    0    3    3   -0.017783   -0.000000
    4    0    0    4    3   -0.004420   -0.000015
    4    0    0    1    4   -0.002448   -0.000009
    4    0    0    2    4    0.011005    0.000061
    4    0    0    3    4   -0.004420    0.000015
    4    0    0    4    4    0.020270   -0.000000
    4    1   -4    1    1    0.001685    0.000031
    4    1   -4    2    1    0.000821    0.000041
    4    1   -4    3    1    0.000269    0.000083
    4    1   -4    4    1   -0.000217    0.000062
    4    1   -4    1    2    0.000770    0.000036
    4    1   -4    2    2    0.001681    0.000042
    4    1   -4    3    2    0.000230    0.000084
    4    1   -4    4    2   -0.000152    0.000057
    4    1   -4    1    3   -0.000246    0.000028
    4    1   -4    2    3   -0.000220    0.000033
    4    1   -4    3    3   -0.001833    0.000078
    4    1   -4    4    3   -0.001904    0.000065
    4    1   -4    1    4    0.001255    0.000019
    4    1   -4    2    4    0.001200    0.000020
    4    1   -4    3    4   -0.006712    0.000094
    4    1   -4    4    4   -0.002667   -0.000150
    4    1   -3    1    1   -0.005496    0.000001
    4    1   -3    2    1   -0.004078   -0.000012
    4    1   -3    3    1   -0.004197   -0.000014
    4    1   -3    4    1    0.001485    0.000028
    4    1   -3    1    2   -0.001012    0.000017
    4    1   -3    2    2   -0.003340    0.000016
    4    1   -3    3    2   -0.003126    0.000015
    4    1   -3    4    2    0.001811   -0.000030
    4    1   -3    1    3   -0.002706    0.000003
    4    1   -3    2    3   -0.002176   -0.000014
    4    1   -3    3    3    0.000036   -0.000007
    4    1   -3    4    3   -0.001681   -0.000021
    4    1   -3    1    4   -0.002157   -0.000083
    4    1   -3    2    4   -0.001548    0.000045
    4    1   -3    3    4    0.000915   -0.000015
    4    1   -3    4    4    0.008863   -0.000010
    4    1   -2    1    1   -0.000540   -0.000007
    4    1   -2    2    1   -0.001910   -0.000026
    4    1   -2    3    1   -0.003558   -0.000075
    4    1   -2    4    1   -0.002805   -0.000063
    4    1   -2    1    2    0.006189   -0.000009
    4    1   -2    2    2    0.004958   -0.000010
    4    1   -2    3    2    0.003448   -0.000056
    4    1   -2    4    2    0.002861   -0.000016
    4    1   -2    1    3    0.004913    0.000004
    4    1   -2    2    3   -0.000222    0.000008
    4    1   -2    3    3   -0.001899   -0.000042
    4    1   -2    4    3    0.001738   -0.000022
    4    1   -2    1    4    0.005659   -0.000007
    4    1   -2    2    4   -0.002488   -0.000022
    4    1   -2    3    4   -0.004458   -0.000085
    4    1   -2    4    4   -0.002458    0.000059
    4    2   -4    1    1    0.004585   -0.000004
    4    2   -4    2    1    0.003817    0.000011
    4    2   -4    3    1    0.004109   -0.000015
    4    2   -4    4    1   -0.001333   -0.000056
    4    2   -4    1    2    0.003835   -0.000016
    4    2   -4    2    2    0.004578   -0.000003
    4    2   -4    3    2    0.004122   -0.000034
    4    2   -4    4    2   -0.001328   -0.000008
    4    2   -4    1    3    0.003606    0.000019
    4    2   -4    2    3    0.003600    0.000037
    4    2   -4    3    3    0.002252    0.000001
    4    2   -4    4    3   -0.002941    0.000018
    4    2   -4    1    4    0.000673    0.000055
    4    2   -4    2    4    0.000654   -0.000002
    4    2   -4    3    4   -0.000029   -0.000018
    4    2   -4    4    4   -0.017265    0.000006
    4    2   -3    1    1   -0.000993    0.000026
    4    2   -3    2    1    0.000264    0.000038
    4    2   -3    3    1   -0.001696    0.000052
    4    2   -3    4    1    0.004521    0.000036
    4    2   -3    1    2   -0.002895    0.000034
    4    2   -3    2    2   -0.001255    0.000034
    4    2   -3    3    2   -0.004029    0.000054
    4    2   -3    4    2   -0.000779    0.000028
    4    2   -3    1    3   -0.001987    0.000044
    4    2   -3    2    3   -0.000669    0.000052
    4    2   -3    3    3   -0.003023    0.000065
    4    2   -3    4    3    0.002353    0.000064
    4    2   -3    1    4   -0.002152    0.000074
    4    2   -3    2    4    0.001891    0.000024
    4    2   -3    3    4   -0.003863    0.000094
    4    2   -3    4    4    0.005895   -0.000126
    4    3   -4    1    1   -0.001931   -0.000023
    4    3   -4    2    1   -0.003297   -0.000031
    4    3   -4    3    1    0.000689   -0.000028
    4    3   -4    4    1   -0.000587   -0.000018
    4    3   -4    1    2   -0.003278   -0.000027
    4    3   -4    2    2   -0.001936   -0.000034
    4    3   -4    3    2    0.000697   -0.000029
    4    3   -4    4    2   -0.000645   -0.000012
    4    3   -4    1    3   -0.003253   -0.000070
    4    3   -4    2    3   -0.003274   -0.000074
    4    3   -4    3    3   -0.000448   -0.000069
    4    3   -4    4    3   -0.004889   -0.000089
    4    3   -4    1    4   -0.000071   -0.000066
    4    3   -4    2    4    0.000010   -0.000066
    4    3   -4    3    4    0.005788   -0.000078
    4    3   -4    4    4    0.001710    0.000126
    5   -3    1    1    1    0.001105   -0.000013
    5   -3    1    2    1    0.002054   -0.000001
    5   -3    1    3    1    0.002069    0.000011
    5   -3    1    4    1   -0.001112   -0.000008
    5   -3    1    1    2   -0.000162   -0.000030
    5   -3    1    2    2    0.001612   -0.000012
    5   -3    1    3    2    0.000570   -0.000014
    5   -3    1    4    2   -0.004827    0.000046
    5   -3    1    1    3    0.000940   -0.000031
    5   -3    1    2    3    0.003289   -0.000009
    5   -3    1    3    3    0.002907   -0.000009
    5   -3    1    4    3    0.000458    0.000007
    5   -3    1    1    4   -0.002655    0.000006
    5   -3    1    2    4    0.000145   -0.000076
    5   -3    1    3    4   -0.001088   -0.000021
    5   -3    1    4    4   -0.016577    0.000035
    5   -2   -3    1    1    0.006959   -0.000042
    5   -2   -3    2    1    0.004639   -0.000051
    5   -2   -3    3    1    0.001228   -0.000083
    5   -2   -3    4    1    0.000842   -0.000072
    5   -2   -3    1    2    0.004667   -0.000058
    5   -2   -3    2    2    0.006989   -0.000051
    5   -2   -3    3    2    0.001269   -0.000090
    5   -2   -3    4    2    0.000816   -0.000052
    5   -2   -3    1    3    0.000372   -0.000055
    5   -2   -3    2    3    0.000372   -0.000054
    5   -2   -3    3    3   -0.000473   -0.000092
    5   -2   -3    4    3   -0.009408   -0.000052
    5   -2   -3    1    4   -0.000289   -0.000017
    5   -2   -3    2    4   -0.000182   -0.000030
    5   -2   -3    3    4   -0.003112   -0.000108
    5   -2   -3    4    4   -0.007907    0.000185
    5   -2   -2    1    1    0.003085   -0.000013
    5   -2   -2    2    1    0.001826   -0.000008
    5   -2   -2    3    1   -0.008526    0.000002
    5   -2   -2    4    1   -0.002300   -0.000008
    5   -2   -2    1    2    0.006581   -0.000030
    5   -2   -2    2    2    0.002462   -0.000034
    5   -2   -2    3    2    0.001109   -0.000034
    5   -2   -2    4    2    0.003754    0.000011
    5   -2   -2    1    3    0.005586   -0.000009
    5   -2   -2    2    3    0.004316   -0.000003
    5   -2   -2    3    3   -0.002068   -0.000007
    5   -2   -2    4    3    0.004220    0.000021
    5   -2   -2    1    4    0.005374    0.000097
    5   -2   -2    2    4   -0.002372   -0.000071
    5   -2   -2    3    4   -0.003549    0.000008
    5   -2   -2    4    4   -0.006746    0.000054
    5   -2   -1    1    1   -0.002913   -0.000008
    5   -2   -1    2    1   -0.009668    0.000011
    5   -2   -1    3    1    0.000129    0.000050
    5   -2   -1    4    1    0.002686    0.000095
    5   -2   -1    1    2   -0.004125   -0.000002
    5   -2   -1    2    2   -0.006919   -0.000006
    5   -2   -1    3    2   -0.001298    0.000029
    5   -2   -1    4    2   -0.001282    0.000015
    5   -2   -1    1    3   -0.000592   -0.000002
    5   -2   -1    2    3   -0.003068   -0.000011
    5   -2   -1    3    3    0.000778    0.000032
    5   -2   -1    4    3    0.002892    0.000022
    5   -2   -1    1    4   -0.002533   -0.000016
    5   -2   -1    2    4    0.001176    0.000017
    5   -2   -1    3    4    0.002763    0.000066
    5   -2   -1    4    4    0.005787   -0.000018
    5   -2    0    1    1    0.002963    0.000063
    5   -2    0    2    1   -0.004398    0.000065
    5   -2    0    3    1   -0.001113    0.000065
    5   -2    0    4    1   -0.002389    0.000056
    5   -2    0    1    2   -0.000004    0.000076
    5   -2    0    2    2   -0.001589    0.000060
    5   -2    0    3    2   -0.001821    0.000076
    5   -2    0    4    2   -0.002955   -0.000014
    5   -2    0    1    3    0.002184    0.000063
    5   -2    0    2    3   -0.003665    0.000043
    5   -2    0    3    3    0.001901    0.000058
    5   -2    0    4    3    0.001513    0.000003
    5   -2    0    1    4    0.001363   -0.000025
    5   -2    0    2    4   -0.005791    0.000077
    5   -2    0    3    4   -0.002947    0.000058
    5   -2    0    4    4    0.002293   -0.000181
    5   -1   -3    1    1   -0.012174    0.000044
    5   -1   -3    2    1   -0.007436    0.000043
    5   -1   -3    3    1   -0.006714    0.000061
    5   -1   -3    4    1   -0.001453    0.000035
    5   -1   -3    1    2   -0.007433    0.000072
    5   -1   -3    2    2   -0.012168    0.000058
    5   -1   -3    3    2   -0.006714    0.000092
    5   -1   -3    4    2   -0.001470    0.000023
    5   -1   -3    1    3   -0.008322    0.000022
    5   -1   -3    2    3   -0.008326    0.000011
    5   -1   -3    3    3   -0.002814    0.000049
    5   -1   -3    4    3    0.007569   -0.000021
    5   -1   -3    1    4   -0.001359   -0.000056
    5   -1   -3    2    4   -0.001330    0.000030
    5   -1   -3    3    4    0.009677    0.000040
    5   -1   -3    4    4    0.028656   -0.000151
    5   -1   -2    1    1    0.002921   -0.000060
    5   -1   -2    2    1    0.000952   -0.000061
    5   -1   -2    3    1    0.004580   -0.000078
    5   -1   -2    4    1   -0.008885   -0.000074
    5   -1   -2    1    2    0.006911   -0.000071
    5   -1   -2    2    2    0.001636   -0.000054
    5   -1   -2    3    2    0.004984   -0.000078
    5   -1   -2    4    2   -0.000065    0.000000
    5   -1   -2    1    3    0.006565   -0.000085
    5   -1   -2    2    3    0.001308   -0.000075
    5   -1   -2    3    3    0.004901   -0.000093
    5   -1   -2    4    3   -0.002173   -0.000053
    5   -1   -2    1    4    0.003910   -0.000071
    5   -1   -2    2    4   -0.002593   -0.000031
    5   -1   -2    3    4    0.003719   -0.000107
    5   -1   -2    4    4   -0.012725    0.000206
    5   -1   -1    1    1   -0.005972   -0.000011
    5   -1   -1    2    1    0.001403   -0.000027
    5   -1   -1    3    1   -0.001848   -0.000037
    5   -1   -1    4    1   -0.001963   -0.000045
    5   -1   -1    1    2   -0.000102   -0.000027
    5   -1   -1    2    2    0.007254   -0.000031
    5   -1   -1    3    2   -0.000538   -0.000067
    5   -1   -1    4    2    0.009907   -0.000014
    5   -1   -1    1    3   -0.000961    0.000016
    5   -1   -1    2    3    0.001332    0.000015
    5   -1   -1    3    3   -0.006601   -0.000021
    5   -1   -1    4    3   -0.001959    0.000040
    5   -1   -1    1    4   -0.001853    0.000104
    5   -1   -1    2    4    0.010841   -0.000053
    5   -1   -1    3    4   -0.003968   -0.000044
    5   -1   -1    4    4    0.006818    0.000063
    5    0   -3    1    1    0.007749    0.000051
    5    0   -3    2    1    0.005322    0.000054
    5    0   -3    3    1    0.001620    0.000042
    5    0   -3    4    1   -0.001041    0.000023
    5    0   -3    1    2    0.005300    0.000054
    5    0   -3    2    2    0.007728    0.000061
    5    0   -3    3    2    0.001588    0.000045
    5    0   -3    4    2   -0.001039    0.000003
    5    0   -3    1    3    0.002952    0.000109
    5    0   -3    2    3    0.002961    0.000109
    5    0   -3    3    3   -0.000919    0.000092
    5    0   -3    4    3   -0.001421    0.000075
    5    0   -3    1    4    0.000446    0.000063
    5    0   -3    2    4    0.000321    0.000082
    5    0   -3    3    4   -0.008969    0.000092
    5    0   -3    4    4   -0.008989   -0.000204
    5    0   -2    1    1    0.002434    0.000020
    5    0   -2    2    1    0.000450    0.000012
    5    0   -2    3    1    0.001433    0.000003
    5    0   -2    4    1    0.001265    0.000017
    5    0   -2    1    2   -0.005115    0.000039
    5    0   -2    2    2   -0.003450    0.000042
    5    0   -2    3    2   -0.004472    0.000049
    5    0   -2    4    2   -0.005930   -0.000016
    5    0   -2    1    3   -0.001833    0.000010
    5    0   -2    2    3   -0.001633    0.000012
    5    0   -2    3    3    0.001538    0.000017
    5    0   -2    4    3   -0.003774   -0.000018
    5    0   -2    1    4   -0.002488   -0.000083
    5    0   -2    2    4   -0.001532    0.000056
    5    0   -2    3    4    0.000536   -0.000001
    5    0   -2    4    4    0.005047   -0.000079
    5    1   -3    1    1   -0.001603   -0.000045
    5    1   -3    2    1   -0.001614   -0.000037
    5    1   -3    3    1   -0.000034   -0.000009
    5    1   -3    4    1   -0.000150    0.000007
    5    1   -3    1    2   -0.001621   -0.000059
    5    1   -3    2    2   -0.001608   -0.000059
    5    1   -3    3    2   -0.000041   -0.000036
    5    1   -3    4    2   -0.000118    0.000014
    5    1   -3    1    3   -0.000509   -0.000069
    5    1   -3    2    3   -0.000510   -0.000062
    5    1   -3    3    3    0.001713   -0.000043
    5    1   -3    4    3    0.001523   -0.000015
    5    1   -3    1    4   -0.004683    0.000015
    5    1   -3    2    4   -0.004688   -0.000071
    5    1   -3    3    4   -0.000979   -0.000013
    5    1   -3    4    4   -0.009454    0.000147
