File written on 14Sep2016 at 16:08:12 

calc_only_A  :  F

begin real_lattice
   2.2729897  -1.3123112   3.9539821
   0.0000000   2.6246225   3.9539821
  -2.2729897  -1.3123112   3.9539821
end real_lattice

begin recip_lattice
   1.3821412  -0.7979796   0.5296926
   0.0000000   1.5959591   0.5296926
  -1.3821412  -0.7979796   0.5296926
end recip_lattice

begin kpoints
     9
    0.00000000    0.00625000    0.00000000
    0.00000000    0.00625000    0.11111111
    0.00000000    0.00625000    0.22222222
    0.00000000    0.00625000    0.33333333
    0.00000000    0.00625000    0.44444444
    0.00000000    0.00625000    0.55555556
    0.00000000    0.00625000    0.66666667
    0.00000000    0.00625000    0.77777778
    0.00000000    0.00625000    0.88888889
end kpoints

begin projections
    10
   0.99756    0.56682    0.96592     0  1  1
    0.0000000  0.0000000  1.0000000   1.0000000  0.0000000  0.0000000    1.00
   0.74793    0.36739    0.48064     0  1  1
    0.0000000  0.0000000  1.0000000   1.0000000  0.0000000  0.0000000    1.00
   0.07375    0.00536    0.34708     0  1  1
    0.0000000  0.0000000  1.0000000   1.0000000  0.0000000  0.0000000    1.00
   0.34224    0.21795    0.13316     0  1  1
    0.0000000  0.0000000  1.0000000   1.0000000  0.0000000  0.0000000    1.00
   0.90052    0.38677    0.44548     0  1  1
    0.0000000  0.0000000  1.0000000   1.0000000  0.0000000  0.0000000    1.00
   0.66193    0.01611    0.65085     0  1  1
    0.0000000  0.0000000  1.0000000   1.0000000  0.0000000  0.0000000    1.00
   0.64641    0.32299    0.85569     0  1  1
    0.0000000  0.0000000  1.0000000   1.0000000  0.0000000  0.0000000    1.00
   0.40129    0.20687    0.96854     0  1  1
    0.0000000  0.0000000  1.0000000   1.0000000  0.0000000  0.0000000    1.00
   0.59840    0.67298    0.45688     0  1  1
    0.0000000  0.0000000  1.0000000   1.0000000  0.0000000  0.0000000    1.00
   0.33002    0.10038    0.75545     0  1  1
    0.0000000  0.0000000  1.0000000   1.0000000  0.0000000  0.0000000    1.00
end projections

begin nnkpts
   1
     1     2      0   0   0
     2     3      0   0   0
     3     4      0   0   0
     4     5      0   0   0
     5     6      0   0   0
     6     7      0   0   0
     7     8      0   0   0
     8     9      0   0   0
     9     1      0   0   1
end nnkpts

begin exclude_bands
   0
end exclude_bands
