
             +---------------------------------------------------+
             |                                                   |
             |                   WANNIER90                       |
             |                                                   |
             +---------------------------------------------------+
             |                                                   |
             |        Welcome to the Maximally-Localized         |
             |        Generalized Wannier Functions code         |
             |            http://www.wannier.org                 |
             |                                                   |
             |  Wannier90 v2.0 Authors:                          |
             |    Arash A. Mostofi  (Imperial College London)    |
             |    Giovanni Pizzi    (EPFL)                       |
             |    Ivo Souza         (Universidad del Pais Vasco) |
             |    Jonathan R. Yates (University of Oxford)       |
             |                                                   |
             |  Wannier90 Contributors:                          |
             |    Young-Su Lee       (KIST, S. Korea)            |
             |    Matthew Shelley    (Imperial College London)   |
             |    Nicolas Poilvert   (Penn State University)     |
             |    Raffaello Bianco   (Paris 6 and CNRS)          |
             |    Gabriele Sclauzero (ETH Zurich)                |
             |                                                   |
             |  Wannier77 Authors:                               |
             |    Nicola Marzari    (EPFL)                       |
             |    Ivo Souza         (Universidad del Pais Vasco) |
             |    David Vanderbilt  (Rutgers University)         |
             |                                                   |
             |  Please cite                                      |
             |                                                   |
             |  [ref] "Wannier90: A Tool for Obtaining Maximally |
             |         Localised Wannier Functions"              |
             |        A. A. Mostofi, J. R. Yates, Y.-S. Lee,     |
             |        I. Souza, D. Vanderbilt and N. Marzari     |
             |        Comput. Phys. Commun. 178, 685 (2008)      |
             |                                                   |
             |  in any publications arising from the use of      |
             |  this code. For the method please cite            |
             |                                                   |
             |  [ref] "Maximally Localized Generalised Wannier   |
             |         Functions for Composite Energy Bands"     |
             |         N. Marzari and D. Vanderbilt              |
             |         Phys. Rev. B 56 12847 (1997)              |
             |                                                   |
             |  [ref] "Maximally Localized Wannier Functions     |
             |         for Entangled Energy Bands"               |
             |         I. Souza, N. Marzari and D. Vanderbilt    |
             |         Phys. Rev. B 65 035109 (2001)             |
             |                                                   |
             |                                                   |
             | Copyright (c) 1996-2015                           |
             |        Arash A. Mostofi, Jonathan R. Yates,       |
             |        Young-Su Lee, Giovanni Pizzi, Ivo Souza,   |
             |        David Vanderbilt and Nicola Marzari        |
             |                                                   |
             |        Release: 2.0.1   2nd April 2015            |
             |                                                   |
             | This program is free software; you can            |
             | redistribute it and/or modify it under the terms  |
             | of the GNU General Public License as published by |
             | the Free Software Foundation; either version 2 of |
             | the License, or (at your option) any later version|
             |                                                   |
             | This program is distributed in the hope that it   |
             | will be useful, but WITHOUT ANY WARRANTY; without |
             | even the implied warranty of MERCHANTABILITY or   |
             | FITNESS FOR A PARTICULAR PURPOSE. See the GNU     |
             | General Public License for more details.          |
             |                                                   |
             | You should have received a copy of the GNU General|
             | Public License along with this program; if not,   |
             | write to the Free Software Foundation, Inc.,      |
             | 675 Mass Ave, Cambridge, MA 02139, USA.           |
             |                                                   |
             +---------------------------------------------------+
             |    Execution started on 13Sep2016 at 16:30:48     |
             +---------------------------------------------------+
 
 ******************************************************************************
 * -> Using CODATA 2006 constant values                                       *
 *    (http://physics.nist.gov/cuu/Constants/index.html)                      *
 * -> Using Bohr value from CODATA                                            *
 ******************************************************************************
 

                                    ------
                                    SYSTEM
                                    ------

                              Lattice Vectors (Ang)
                    a_1    -2.698800   0.000000   2.698800
                    a_2     0.000000   2.698800   2.698800
                    a_3    -2.698800   2.698800   0.000000

                   Unit Cell Volume:      39.31354  (Ang^3)

                        Reciprocal-Space Vectors (Ang^-1)
                    b_1    -1.164070  -1.164070   1.164070
                    b_2     1.164070   1.164070   1.164070
                    b_3    -1.164070   1.164070  -1.164070
  
 *----------------------------------------------------------------------------*
 |   Site       Fractional Coordinate          Cartesian Coordinate (Ang)     |
 +----------------------------------------------------------------------------+
 | Si   1  -0.25000   0.75000  -0.25000   |    1.34940   1.34940   1.34940    |
 | Si   2   0.00000   0.00000   0.00000   |    0.00000   0.00000   0.00000    |
 *----------------------------------------------------------------------------*
  
                                ------------
                                K-POINT GRID
                                ------------
  
             Grid size =  4 x  4 x  4      Total points =   64
  
  
 *---------------------------------- MAIN ------------------------------------*
 |  Number of Wannier Functions               :                 8             |
 |  Number of input Bloch states              :                12             |
 |  Output verbosity (1=low, 5=high)          :                 1             |
 |  Timing Level (1=low, 5=high)              :                 1             |
 |  Optimisation (0=memory, 3=speed)          :                 3             |
 |  Length Unit                               :               Ang             |
 |  Post-processing setup (write *.nnkp)      :                 F             |
 |  Using Gamma-only branch of algorithms     :                 F             |
 *----------------------------------------------------------------------------*
 *------------------------------- WANNIERISE ---------------------------------*
 |  Total number of iterations                :                50             |
 |  Number of CG steps before reset           :                 5             |
 |  Trial step length for line search         :             2.000             |
 |  Convergence tolerence                     :         0.100E-09             |
 |  Convergence window                        :                -1             |
 |  Iterations between writing output         :                10             |
 |  Iterations between backing up to disk     :               100             |
 |  Write r^2_nm to file                      :                 F             |
 |  Write xyz WF centres to file              :                 F             |
 |  Write on-site energies <0n|H|0n> to file  :                 F             |
 |  Use guiding centre to control phases      :                 F             |
 |  Use phases for initial projections        :                 F             |
 *----------------------------------------------------------------------------*
 *------------------------------- DISENTANGLE --------------------------------*
 |  Using band disentanglement                :                 T             |
 |  Total number of iterations                :               120             |
 |  Mixing ratio                              :             1.000             |
 |  Convergence tolerence                     :         1.000E-10             |
 |  Convergence window                        :                 3             |
 *----------------------------------------------------------------------------*
 Time to read parameters        0.000 (sec)

 *---------------------------------- K-MESH ----------------------------------*
 +----------------------------------------------------------------------------+
 |                    Distance to Nearest-Neighbour Shells                    |
 |                    ------------------------------------                    |
 |          Shell             Distance (Ang^-1)          Multiplicity         |
 |          -----             -----------------          ------------         |
 |             1                   0.504057                      8            |
 |             2                   0.582035                      6            |
 |             3                   0.823122                     12            |
 |             4                   0.965196                     24            |
 |             5                   1.008114                      8            |
 |             6                   1.164070                      6            |
 |             7                   1.268516                     24            |
 |             8                   1.301470                     24            |
 |             9                   1.425689                     24            |
 |            10                   1.512172                     32            |
 |            11                   1.646244                     12            |
 |            12                   1.721683                     48            |
 +----------------------------------------------------------------------------+
 | The b-vectors are chosen automatically                                     |
 | The following shells are used:   1                                         |
 +----------------------------------------------------------------------------+
 |                        Shell   # Nearest-Neighbours                        |
 |                        -----   --------------------                        |
 |                          1               8                                 |
 +----------------------------------------------------------------------------+
 | Completeness relation is fully satisfied [Eq. (B1), PRB 56, 12847 (1997)]  |
 +----------------------------------------------------------------------------+
 |                  b_k Vectors (Ang^-1) and Weights (Ang^2)                  |
 |                  ----------------------------------------                  |
 |            No.         b_k(x)      b_k(y)      b_k(z)        w_b           |
 |            ---        --------------------------------     --------        |
 |             1         0.291018    0.291018    0.291018     1.475950        |
 |             2        -0.291018   -0.291018    0.291018     1.475950        |
 |             3        -0.291018    0.291018   -0.291018     1.475950        |
 |             4        -0.291018    0.291018    0.291018     1.475950        |
 |             5         0.291018   -0.291018    0.291018     1.475950        |
 |             6        -0.291018   -0.291018   -0.291018     1.475950        |
 |             7         0.291018    0.291018   -0.291018     1.475950        |
 |             8         0.291018   -0.291018   -0.291018     1.475950        |
 +----------------------------------------------------------------------------+
 |                           b_k Directions (Ang^-1)                          |
 |                           -----------------------                          |
 |            No.           x           y           z                         |
 |            ---        --------------------------------                     |
 |             1         0.291018    0.291018    0.291018                     |
 |             2        -0.291018   -0.291018    0.291018                     |
 |             3        -0.291018    0.291018   -0.291018                     |
 |             4        -0.291018    0.291018    0.291018                     |
 +----------------------------------------------------------------------------+
  
 *============================================================================*
 |                              MEMORY ESTIMATE                               |
 |         Maximum RAM allocated during each phase of the calculation         |
 *============================================================================*
 |                        Disentanglement            1.92 Mb                  |
 |                            Wannierise:            1.54 Mb                  |
 |                          plot_wannier:            1.54 Mb                  |
 *----------------------------------------------------------------------------*
  
 Starting a new Wannier90 calculation ...

 Time to get kmesh              0.100 (sec)

 Reading overlaps from silicon.mmn    : Created on 25Feb2006 at 11:03:51

 Reading projections from silicon.amn : Created on 25Feb2006 at 11:03:51

 Time to read overlaps          0.072 (sec)

 *------------------------------- DISENTANGLE --------------------------------*
 +----------------------------------------------------------------------------+
 |                              Energy  Windows                               |
 |                              ---------------                               |
 |                   Outer:   -5.82185  to   17.00000  (eV)                   |
 |                   Inner:   -5.82185  to    6.40000  (eV)                   |
 +----------------------------------------------------------------------------+
   Number of target bands to extract:    8

                   Unitarised projection of Wannier functions                  
                   ------------------------------------------                  
   A_mn = <psi_m|g_n> --> S = A.A^+ --> U = S^-1/2.A
   In dis_project... done
   Using an inner window (linner = T)
   In dis_proj_froz... done

                   Extraction of optimally-connected subspace                  
                   ------------------------------------------                  
 +---------------------------------------------------------------------+<-- DIS
 |  Iter     Omega_I(i-1)      Omega_I(i)      Delta (frac.)    Time   |<-- DIS
 +---------------------------------------------------------------------+<-- DIS
       1      12.70775084      11.99932157       5.904E-02      0.18    <-- DIS
       2      11.94864869      11.87247954       6.416E-03      0.18    <-- DIS
       3      11.86500516      11.85376172       9.485E-04      0.18    <-- DIS
       4      11.85233028      11.85025440       1.752E-04      0.19    <-- DIS
       5      11.84993023      11.84947619       3.832E-05      0.19    <-- DIS
       6      11.84939181      11.84927673       9.711E-06      0.20    <-- DIS
       7      11.84925270      11.84922035       2.730E-06      0.20    <-- DIS
       8      11.84921306      11.84920327       8.267E-07      0.20    <-- DIS
       9      11.84920092      11.84919776       2.670E-07      0.21    <-- DIS
      10      11.84919695      11.84919584       9.359E-08      0.21    <-- DIS
      11      11.84919551      11.84919507       3.721E-08      0.22    <-- DIS
      12      11.84919492      11.84919471       1.767E-08      0.22    <-- DIS
      13      11.84919462      11.84919449       1.020E-08      0.23    <-- DIS
      14      11.84919443      11.84919435       6.893E-09      0.23    <-- DIS
      15      11.84919430      11.84919424       5.153E-09      0.24    <-- DIS
      16      11.84919420      11.84919415       4.073E-09      0.24    <-- DIS
      17      11.84919412      11.84919408       3.316E-09      0.24    <-- DIS
      18      11.84919405      11.84919402       2.744E-09      0.25    <-- DIS
      19      11.84919400      11.84919397       2.291E-09      0.25    <-- DIS
      20      11.84919395      11.84919393       1.924E-09      0.26    <-- DIS
      21      11.84919391      11.84919389       1.621E-09      0.26    <-- DIS
      22      11.84919388      11.84919386       1.369E-09      0.26    <-- DIS
      23      11.84919385      11.84919384       1.158E-09      0.27    <-- DIS
      24      11.84919383      11.84919382       9.799E-10      0.27    <-- DIS
      25      11.84919381      11.84919380       8.300E-10      0.28    <-- DIS
      26      11.84919379      11.84919379       7.035E-10      0.28    <-- DIS
      27      11.84919378      11.84919377       5.964E-10      0.28    <-- DIS
      28      11.84919377      11.84919376       5.057E-10      0.29    <-- DIS
      29      11.84919376      11.84919375       4.289E-10      0.29    <-- DIS
      30      11.84919375      11.84919374       3.639E-10      0.30    <-- DIS
      31      11.84919374      11.84919374       3.087E-10      0.30    <-- DIS
      32      11.84919374      11.84919373       2.619E-10      0.30    <-- DIS
      33      11.84919373      11.84919373       2.222E-10      0.31    <-- DIS
      34      11.84919373      11.84919372       1.886E-10      0.31    <-- DIS
      35      11.84919372      11.84919372       1.600E-10      0.32    <-- DIS
      36      11.84919372      11.84919372       1.358E-10      0.32    <-- DIS
      37      11.84919372      11.84919371       1.152E-10      0.33    <-- DIS
      38      11.84919371      11.84919371       9.778E-11      0.33    <-- DIS
      39      11.84919371      11.84919371       8.298E-11      0.34    <-- DIS
      40      11.84919371      11.84919371       7.042E-11      0.34    <-- DIS

             <<<      Delta < 1.000E-10  over  3 iterations     >>>
             <<< Disentanglement convergence criteria satisfied >>>

        Final Omega_I    11.84919371 (Ang^2)

 +----------------------------------------------------------------------------+

 Time to disentangle bands      0.176 (sec)

 Writing checkpoint file silicon.chk... done


 *------------------------------- WANNIERISE ---------------------------------*
 +--------------------------------------------------------------------+<-- CONV
 | Iter  Delta Spread     RMS Gradient      Spread (Ang^2)      Time  |<-- CONV
 +--------------------------------------------------------------------+<-- CONV

 ------------------------------------------------------------------------------
 Initial State
  WF centre and spread    1  ( -0.445770, -0.446120, -0.446154 )     1.89688944
  WF centre and spread    2  ( -0.445777,  0.445586,  0.445579 )     1.89050227
  WF centre and spread    3  (  0.445671, -0.445872,  0.445291 )     1.90010949
  WF centre and spread    4  (  0.445673,  0.445314, -0.445885 )     1.90005982
  WF centre and spread    5  (  1.794347,  1.795123,  1.795115 )     1.90391898
  WF centre and spread    6  (  1.794646,  0.903575,  0.903550 )     1.89435774
  WF centre and spread    7  (  0.902741,  1.795474,  0.903506 )     1.90037500
  WF centre and spread    8  (  0.902745,  0.903508,  1.795441 )     1.90042868
  Sum of centres and spreads (  5.394275,  5.396587,  5.396445 )    15.18664143

      0     0.152E+02     0.0000000000       15.1866414286       0.35  <-- CONV
        O_D=      0.1627963 O_OD=      3.1746514 O_TOT=     15.1866414 <-- SPRD
 ------------------------------------------------------------------------------
 Cycle:      1
  WF centre and spread    1  ( -0.455560, -0.455528, -0.455565 )     1.83267720
  WF centre and spread    2  ( -0.455710,  0.455419,  0.455412 )     1.82935589
  WF centre and spread    3  (  0.455209, -0.455517,  0.455204 )     1.83496684
  WF centre and spread    4  (  0.455215,  0.455231, -0.455531 )     1.83490938
  WF centre and spread    5  (  1.804472,  1.804868,  1.804863 )     1.83715809
  WF centre and spread    6  (  1.804621,  0.893714,  0.893687 )     1.83205447
  WF centre and spread    7  (  0.893515,  1.804804,  0.893902 )     1.83558959
  WF centre and spread    8  (  0.893522,  0.893906,  1.804768 )     1.83565093
  Sum of centres and spreads (  5.395284,  5.396896,  5.396740 )    14.67236238

      1    -0.514E+00     0.6568768319       14.6723623843       0.36  <-- CONV
        O_D=      0.1213986 O_OD=      2.7017701 O_TOT=     14.6723624 <-- SPRD
 Delta: O_D= -0.4139778E-01 O_OD= -0.4728813E+00 O_TOT= -0.5142790E+00 <-- DLTA
 ------------------------------------------------------------------------------
 Cycle:     10
  WF centre and spread    1  ( -0.460785, -0.460710, -0.460759 )     1.81216682
  WF centre and spread    2  ( -0.460746,  0.460688,  0.460681 )     1.81246927
  WF centre and spread    3  (  0.460680, -0.460766,  0.460710 )     1.81250355
  WF centre and spread    4  (  0.460683,  0.460744, -0.460775 )     1.81245744
  WF centre and spread    5  (  1.810146,  1.810170,  1.810167 )     1.81239931
  WF centre and spread    6  (  1.810033,  0.888644,  0.888605 )     1.81256329
  WF centre and spread    7  (  0.888614,  1.810065,  0.888653 )     1.81248188
  WF centre and spread    8  (  0.888618,  0.888650,  1.810020 )     1.81253422
  Sum of centres and spreads (  5.397243,  5.397486,  5.397303 )    14.49957577

     10    -0.135E-05     0.0011752177       14.4995757691       0.45  <-- CONV
        O_D=      0.1054680 O_OD=      2.5449141 O_TOT=     14.4995758 <-- SPRD
 Delta: O_D= -0.4802673E-05 O_OD=  0.3449960E-05 O_TOT= -0.1352714E-05 <-- DLTA
 ------------------------------------------------------------------------------
 Cycle:     20
  WF centre and spread    1  ( -0.460755, -0.460713, -0.460767 )     1.81241361
  WF centre and spread    2  ( -0.460743,  0.460720,  0.460716 )     1.81247469
  WF centre and spread    3  (  0.460703, -0.460759,  0.460688 )     1.81248419
  WF centre and spread    4  (  0.460704,  0.460725, -0.460764 )     1.81244496
  WF centre and spread    5  (  1.810128,  1.810118,  1.810117 )     1.81244715
  WF centre and spread    6  (  1.810095,  0.888661,  0.888618 )     1.81242631
  WF centre and spread    7  (  0.888639,  1.810133,  0.888658 )     1.81241831
  WF centre and spread    8  (  0.888642,  0.888652,  1.810085 )     1.81246528
  Sum of centres and spreads (  5.397413,  5.397538,  5.397351 )    14.49957451

     20    -0.203E-08     0.0000361002       14.4995745054       0.54  <-- CONV
        O_D=      0.1054703 O_OD=      2.5449105 O_TOT=     14.4995745 <-- SPRD
 Delta: O_D=  0.4868612E-08 O_OD= -0.6895859E-08 O_TOT= -0.2027246E-08 <-- DLTA
 ------------------------------------------------------------------------------
 Cycle:     30
  WF centre and spread    1  ( -0.460754, -0.460711, -0.460767 )     1.81241739
  WF centre and spread    2  ( -0.460743,  0.460722,  0.460718 )     1.81246432
  WF centre and spread    3  (  0.460703, -0.460760,  0.460686 )     1.81248767
  WF centre and spread    4  (  0.460704,  0.460724, -0.460764 )     1.81244936
  WF centre and spread    5  (  1.810128,  1.810112,  1.810113 )     1.81247543
  WF centre and spread    6  (  1.810097,  0.888662,  0.888617 )     1.81242121
  WF centre and spread    7  (  0.888640,  1.810140,  0.888660 )     1.81240647
  WF centre and spread    8  (  0.888643,  0.888652,  1.810090 )     1.81245266
  Sum of centres and spreads (  5.397417,  5.397539,  5.397353 )    14.49957450

     30    -0.179E-11     0.0000032861       14.4995745026       0.64  <-- CONV
        O_D=      0.1054702 O_OD=      2.5449105 O_TOT=     14.4995745 <-- SPRD
 Delta: O_D=  0.6382342E-08 O_OD= -0.6384136E-08 O_TOT= -0.1794120E-11 <-- DLTA
 ------------------------------------------------------------------------------
 Cycle:     40
  WF centre and spread    1  ( -0.460754, -0.460711, -0.460767 )     1.81241740
  WF centre and spread    2  ( -0.460743,  0.460722,  0.460718 )     1.81246422
  WF centre and spread    3  (  0.460703, -0.460760,  0.460686 )     1.81248769
  WF centre and spread    4  (  0.460704,  0.460724, -0.460764 )     1.81244940
  WF centre and spread    5  (  1.810128,  1.810112,  1.810113 )     1.81247574
  WF centre and spread    6  (  1.810097,  0.888662,  0.888617 )     1.81242119
  WF centre and spread    7  (  0.888640,  1.810140,  0.888660 )     1.81240634
  WF centre and spread    8  (  0.888643,  0.888652,  1.810090 )     1.81245252
  Sum of centres and spreads (  5.397417,  5.397539,  5.397353 )    14.49957450

     40    -0.908E-12     0.0000012124       14.4995745026       0.72  <-- CONV
        O_D=      0.1054702 O_OD=      2.5449106 O_TOT=     14.4995745 <-- SPRD
 Delta: O_D= -0.4231570E-09 O_OD=  0.4222489E-09 O_TOT= -0.9077183E-12 <-- DLTA
 ------------------------------------------------------------------------------
 Cycle:     50
  WF centre and spread    1  ( -0.460754, -0.460711, -0.460767 )     1.81241742
  WF centre and spread    2  ( -0.460743,  0.460722,  0.460718 )     1.81246411
  WF centre and spread    3  (  0.460703, -0.460760,  0.460686 )     1.81248772
  WF centre and spread    4  (  0.460704,  0.460724, -0.460764 )     1.81244944
  WF centre and spread    5  (  1.810128,  1.810112,  1.810113 )     1.81247606
  WF centre and spread    6  (  1.810097,  0.888662,  0.888617 )     1.81242116
  WF centre and spread    7  (  0.888640,  1.810140,  0.888660 )     1.81240621
  WF centre and spread    8  (  0.888643,  0.888652,  1.810090 )     1.81245238
  Sum of centres and spreads (  5.397417,  5.397539,  5.397353 )    14.49957450

     50    -0.924E-13     0.0000009621       14.4995745026       0.80  <-- CONV
        O_D=      0.1054702 O_OD=      2.5449106 O_TOT=     14.4995745 <-- SPRD
 Delta: O_D= -0.2532567E-10 O_OD=  0.2523359E-10 O_TOT= -0.9237056E-13 <-- DLTA
 ------------------------------------------------------------------------------
 Final State
  WF centre and spread    1  ( -0.460754, -0.460711, -0.460767 )     1.81241742
  WF centre and spread    2  ( -0.460743,  0.460722,  0.460718 )     1.81246411
  WF centre and spread    3  (  0.460703, -0.460760,  0.460686 )     1.81248772
  WF centre and spread    4  (  0.460704,  0.460724, -0.460764 )     1.81244944
  WF centre and spread    5  (  1.810128,  1.810112,  1.810113 )     1.81247606
  WF centre and spread    6  (  1.810097,  0.888662,  0.888617 )     1.81242116
  WF centre and spread    7  (  0.888640,  1.810140,  0.888660 )     1.81240621
  WF centre and spread    8  (  0.888643,  0.888652,  1.810090 )     1.81245238
  Sum of centres and spreads (  5.397417,  5.397539,  5.397353 )    14.49957450

         Spreads (Ang^2)       Omega I      =    11.849193709
        ================       Omega D      =     0.105470244
                               Omega OD     =     2.544910550
    Final Spread (Ang^2)       Omega Total  =    14.499574503
 ------------------------------------------------------------------------------
 Time for wannierise            0.452 (sec)

 Writing checkpoint file silicon.chk... done

 Total Execution Time           0.804 (sec)

 *===========================================================================*
 |                             TIMING INFORMATION                            |
 *===========================================================================*
 |    Tag                                                Ncalls      Time (s)|
 |---------------------------------------------------------------------------|
 |kmesh: get                                        :         1         0.100|
 |overlap: read                                     :         1         0.072|
 |dis: main                                         :         1         0.176|
 |wann: main                                        :         1         0.452|
 *---------------------------------------------------------------------------*

 All done: wannier90 exiting
