
             +---------------------------------------------------+
             |                                                   |
             |                   WANNIER90                       |
             |                                                   |
             +---------------------------------------------------+
             |                                                   |
             |        Welcome to the Maximally-Localized         |
             |        Generalized Wannier Functions code         |
             |            http://www.wannier.org                 |
             |                                                   |
             |                                                   |
             |  Wannier90 Developer Group:                       |
             |    Giovanni Pizzi    (EPFL)                       |
             |    Valerio Vitale    (Cambridge)                  |
             |    David Vanderbilt  (Rutgers University)         |
             |    Nicola Marzari    (EPFL)                       |
             |    Ivo Souza         (Universidad del Pais Vasco) |
             |    Arash A. Mostofi  (Imperial College London)    |
             |    Jonathan R. Yates (University of Oxford)       |
             |                                                   |
             |  For the full list of Wannier90 3.x authors,      |
             |  please check the code documentation and the      |
             |  README on the GitHub page of the code            |
             |                                                   |
             |                                                   |
             |  Please cite                                      |
             |                                                   |
             |  [ref] "Wannier90 as a community code:            |
             |        new features and applications",            |
             |        G. Pizzi et al., J. Phys. Cond. Matt. 32,  |
             |        165902 (2020).                             |
             |        http://doi.org/10.1088/1361-648X/ab51ff    |
             |                                                   |
             |  in any publications arising from the use of      |
             |  this code. For the method please cite            |
             |                                                   |
             |  [ref] "Maximally Localized Generalised Wannier   |
             |         Functions for Composite Energy Bands"     |
             |         N. Marzari and D. Vanderbilt              |
             |         Phys. Rev. B 56 12847 (1997)              |
             |                                                   |
             |  [ref] "Maximally Localized Wannier Functions     |
             |         for Entangled Energy Bands"               |
             |         I. Souza, N. Marzari and D. Vanderbilt    |
             |         Phys. Rev. B 65 035109 (2001)             |
             |                                                   |
             |                                                   |
             | Copyright (c) 1996-2020                           |
             |        The Wannier90 Developer Group and          |
             |        individual contributors                    |
             |                                                   |
             |      Release: 3.1.0        5th March    2020      |
             |                                                   |
             | This program is free software; you can            |
             | redistribute it and/or modify it under the terms  |
             | of the GNU General Public License as published by |
             | the Free Software Foundation; either version 2 of |
             | the License, or (at your option) any later version|
             |                                                   |
             | This program is distributed in the hope that it   |
             | will be useful, but WITHOUT ANY WARRANTY; without |
             | even the implied warranty of MERCHANTABILITY or   |
             | FITNESS FOR A PARTICULAR PURPOSE. See the GNU     |
             | General Public License for more details.          |
             |                                                   |
             | You should have received a copy of the GNU General|
             | Public License along with this program; if not,   |
             | write to the Free Software Foundation, Inc.,      |
             | 675 Mass Ave, Cambridge, MA 02139, USA.           |
             |                                                   |
             +---------------------------------------------------+
             |    Execution started on 20Jan2023 at 15:50:36     |
             +---------------------------------------------------+
 
 ******************************************************************************
 * -> Using CODATA 2006 constant values                                       *
 *    (http://physics.nist.gov/cuu/Constants/index.html)                      *
 * -> Using Bohr value from CODATA                                            *
 ******************************************************************************
 

 *---------------------------------- K-MESH ----------------------------------*
 +----------------------------------------------------------------------------+
 |                    Distance to Nearest-Neighbour Shells                    |
 |                    ------------------------------------                    |
 |          Shell             Distance (Ang^-1)          Multiplicity         |
 |          -----             -----------------          ------------         |
 |             1                   0.957961                      8            |
 |             2                   1.106158                      6            |
 |             3                   1.564344                     12            |
 |             4                   1.834355                     24            |
 |             5                   1.915922                      8            |
 |             6                   2.212316                      6            |
 |             7                   2.410815                     24            |
 |             8                   2.473444                     24            |
 |             9                   2.709523                     24            |
 |            10                   2.873883                     32            |
 |            11                   3.128687                     12            |
 |            12                   3.272059                     48            |
 +----------------------------------------------------------------------------+
 | The b-vectors are chosen automatically                                     |
 | The following shells are used:   1                                         |
 +----------------------------------------------------------------------------+
 |                        Shell   # Nearest-Neighbours                        |
 |                        -----   --------------------                        |
 |                          1               8                                 |
 +----------------------------------------------------------------------------+
 | Completeness relation is fully satisfied [Eq. (B1), PRB 56, 12847 (1997)]  |
 +----------------------------------------------------------------------------+
 |                  b_k Vectors (Ang^-1) and Weights (Ang^2)                  |
 |                  ----------------------------------------                  |
 |            No.         b_k(x)      b_k(y)      b_k(z)        w_b           |
 |            ---        --------------------------------     --------        |
 |             1         0.553079    0.553079   -0.553079     0.408635        |
 |             2         0.553079   -0.553079    0.553079     0.408635        |
 |             3        -0.553079    0.553079    0.553079     0.408635        |
 |             4         0.553079    0.553079    0.553079     0.408635        |
 |             5        -0.553079   -0.553079    0.553079     0.408635        |
 |             6        -0.553079    0.553079   -0.553079     0.408635        |
 |             7         0.553079   -0.553079   -0.553079     0.408635        |
 |             8        -0.553079   -0.553079   -0.553079     0.408635        |
 +----------------------------------------------------------------------------+
 |                           b_k Directions (Ang^-1)                          |
 |                           -----------------------                          |
 |            No.           x           y           z                         |
 |            ---        --------------------------------                     |
 |             1         0.553079    0.553079   -0.553079                     |
 |             2         0.553079   -0.553079    0.553079                     |
 |             3        -0.553079    0.553079    0.553079                     |
 |             4         0.553079    0.553079    0.553079                     |
 +----------------------------------------------------------------------------+
  
 Starting a new Wannier90 calculation ...


 Reading overlaps from wannier.mmn    : Created on 25Feb2006 at 11:03:51

 Reading projections from wannier.amn : Created on 25Feb2006 at 11:03:51

 *------------------------------- WANNIERISE ---------------------------------*
 +--------------------------------------------------------------------+<-- CONV
 | Iter  Delta Spread     RMS Gradient      Spread (Ang^2)      Time  |<-- CONV
 +--------------------------------------------------------------------+<-- CONV

 ------------------------------------------------------------------------------
 Initial State
  WF centre and spread    1  (  0.858454,  0.858454,  0.858454 )     1.17565579
  WF centre and spread    2  (  0.858454, -0.858454, -0.858454 )     1.17565579
  WF centre and spread    3  ( -0.858454,  0.858454, -0.858454 )     1.17565579
  WF centre and spread    4  ( -0.858454, -0.858454,  0.858454 )     1.17565579
  Sum of centres and spreads (  0.000000,  0.000000, -0.000000 )     4.70262316

      0     0.470E+01     0.0000000000        4.7026231555       0.00  <-- CONV
        O_D=      0.0082363 O_OD=      0.5106633 O_TOT=      4.7026232 <-- SPRD
 ------------------------------------------------------------------------------
 Cycle:      1
  WF centre and spread    1  (  0.860085,  0.860085,  0.860085 )     1.16821548
  WF centre and spread    2  (  0.860085, -0.860085, -0.860085 )     1.16821548
  WF centre and spread    3  ( -0.860085,  0.860085, -0.860085 )     1.16821548
  WF centre and spread    4  ( -0.860085, -0.860085,  0.860085 )     1.16821548
  Sum of centres and spreads (  0.000000,  0.000000, -0.000000 )     4.67286193

      1    -0.298E-01     0.2589041927        4.6728619317       0.00  <-- CONV
        O_D=      0.0092655 O_OD=      0.4798729 O_TOT=      4.6728619 <-- SPRD
 Delta: O_D=  0.1029188E-02 O_OD= -0.3079041E-01 O_TOT= -0.2976122E-01 <-- DLTA
 ------------------------------------------------------------------------------
 Cycle:     13
  WF centre and spread    1  (  0.860077,  0.860077,  0.860077 )     1.16821534
  WF centre and spread    2  (  0.860077, -0.860077, -0.860077 )     1.16821534
  WF centre and spread    3  ( -0.860077,  0.860077, -0.860077 )     1.16821534
  WF centre and spread    4  ( -0.860077, -0.860077,  0.860077 )     1.16821534
  Sum of centres and spreads (  0.000000,  0.000000, -0.000000 )     4.67286136

     13    -0.888E-15     0.0000000010        4.6728613563       0.01  <-- CONV
        O_D=      0.0092596 O_OD=      0.4798782 O_TOT=      4.6728614 <-- SPRD
 Delta: O_D=  0.8992980E-12 O_OD= -0.9000578E-12 O_TOT= -0.8881784E-15 <-- DLTA
 ------------------------------------------------------------------------------
 Cycle:     26
  WF centre and spread    1  (  0.860077,  0.860077,  0.860077 )     1.16821534
  WF centre and spread    2  (  0.860077, -0.860077, -0.860077 )     1.16821534
  WF centre and spread    3  ( -0.860077,  0.860077, -0.860077 )     1.16821534
  WF centre and spread    4  ( -0.860077, -0.860077,  0.860077 )     1.16821534
  Sum of centres and spreads (  0.000000,  0.000000, -0.000000 )     4.67286136

     26     0.000E+00     0.0000000003        4.6728613563       0.02  <-- CONV
        O_D=      0.0092596 O_OD=      0.4798782 O_TOT=      4.6728614 <-- SPRD
 Delta: O_D=  0.2383198E-12 O_OD= -0.2384759E-12 O_TOT=  0.0000000E+00 <-- DLTA
 ------------------------------------------------------------------------------
 Cycle:     39
  WF centre and spread    1  (  0.860077,  0.860077,  0.860077 )     1.16821534
  WF centre and spread    2  (  0.860077, -0.860077, -0.860077 )     1.16821534
  WF centre and spread    3  ( -0.860077,  0.860077, -0.860077 )     1.16821534
  WF centre and spread    4  ( -0.860077, -0.860077,  0.860077 )     1.16821534
  Sum of centres and spreads (  0.000000,  0.000000, -0.000000 )     4.67286136

     39    -0.888E-15     0.0000000000        4.6728613563       0.03  <-- CONV
        O_D=      0.0092596 O_OD=      0.4798782 O_TOT=      4.6728614 <-- SPRD
 Delta: O_D=  0.2023035E-13 O_OD= -0.2092770E-13 O_TOT= -0.8881784E-15 <-- DLTA
 ------------------------------------------------------------------------------
 Cycle:     52
  WF centre and spread    1  (  0.860077,  0.860077,  0.860077 )     1.16821534
  WF centre and spread    2  (  0.860077, -0.860077, -0.860077 )     1.16821534
  WF centre and spread    3  ( -0.860077,  0.860077, -0.860077 )     1.16821534
  WF centre and spread    4  ( -0.860077, -0.860077,  0.860077 )     1.16821534
  Sum of centres and spreads (  0.000000,  0.000000, -0.000000 )     4.67286136

     52     0.000E+00     0.0000000000        4.6728613563       0.03  <-- CONV
        O_D=      0.0092596 O_OD=      0.4798782 O_TOT=      4.6728614 <-- SPRD
 Delta: O_D=  0.1746867E-14 O_OD= -0.1776357E-14 O_TOT=  0.0000000E+00 <-- DLTA
 ------------------------------------------------------------------------------
 Cycle:     65
  WF centre and spread    1  (  0.860077,  0.860077,  0.860077 )     1.16821534
  WF centre and spread    2  (  0.860077, -0.860077, -0.860077 )     1.16821534
  WF centre and spread    3  ( -0.860077,  0.860077, -0.860077 )     1.16821534
  WF centre and spread    4  ( -0.860077, -0.860077,  0.860077 )     1.16821534
  Sum of centres and spreads (  0.000000,  0.000000, -0.000000 )     4.67286136

     65     0.000E+00     0.0000000000        4.6728613563       0.04  <-- CONV
        O_D=      0.0092596 O_OD=      0.4798782 O_TOT=      4.6728614 <-- SPRD
 Delta: O_D=  0.1457168E-15 O_OD=  0.0000000E+00 O_TOT=  0.0000000E+00 <-- DLTA
 ------------------------------------------------------------------------------
 Cycle:     78
  WF centre and spread    1  (  0.860077,  0.860077,  0.860077 )     1.16821534
  WF centre and spread    2  (  0.860077, -0.860077, -0.860077 )     1.16821534
  WF centre and spread    3  ( -0.860077,  0.860077, -0.860077 )     1.16821534
  WF centre and spread    4  ( -0.860077, -0.860077,  0.860077 )     1.16821534
  Sum of centres and spreads (  0.000000,  0.000000, -0.000000 )     4.67286136

     78     0.000E+00     0.0000000000        4.6728613563       0.05  <-- CONV
        O_D=      0.0092596 O_OD=      0.4798782 O_TOT=      4.6728614 <-- SPRD
 Delta: O_D=  0.2081668E-16 O_OD= -0.2775558E-15 O_TOT=  0.0000000E+00 <-- DLTA
 ------------------------------------------------------------------------------
 Cycle:     91
  WF centre and spread    1  (  0.860077,  0.860077,  0.860077 )     1.16821534
  WF centre and spread    2  (  0.860077, -0.860077, -0.860077 )     1.16821534
  WF centre and spread    3  ( -0.860077,  0.860077, -0.860077 )     1.16821534
  WF centre and spread    4  ( -0.860077, -0.860077,  0.860077 )     1.16821534
  Sum of centres and spreads (  0.000000,  0.000000, -0.000000 )     4.67286136

     91     0.000E+00     0.0000000000        4.6728613563       0.06  <-- CONV
        O_D=      0.0092596 O_OD=      0.4798782 O_TOT=      4.6728614 <-- SPRD
 Delta: O_D= -0.1040834E-16 O_OD= -0.3885781E-15 O_TOT=  0.0000000E+00 <-- DLTA
 ------------------------------------------------------------------------------
 Cycle:    100
  WF centre and spread    1  (  0.860077,  0.860077,  0.860077 )     1.16821534
  WF centre and spread    2  (  0.860077, -0.860077, -0.860077 )     1.16821534
  WF centre and spread    3  ( -0.860077,  0.860077, -0.860077 )     1.16821534
  WF centre and spread    4  ( -0.860077, -0.860077,  0.860077 )     1.16821534
  Sum of centres and spreads (  0.000000,  0.000000, -0.000000 )     4.67286136

    100     0.000E+00     0.0000000000        4.6728613563       0.06  <-- CONV
        O_D=      0.0092596 O_OD=      0.4798782 O_TOT=      4.6728614 <-- SPRD
 Delta: O_D= -0.5204170E-17 O_OD=  0.5551115E-16 O_TOT=  0.0000000E+00 <-- DLTA
 ------------------------------------------------------------------------------
 Final State
  WF centre and spread    1  (  0.860077,  0.860077,  0.860077 )     1.16821534
  WF centre and spread    2  (  0.860077, -0.860077, -0.860077 )     1.16821534
  WF centre and spread    3  ( -0.860077,  0.860077, -0.860077 )     1.16821534
  WF centre and spread    4  ( -0.860077, -0.860077,  0.860077 )     1.16821534
  Sum of centres and spreads (  0.000000,  0.000000, -0.000000 )     4.67286136

         Spreads (Ang^2)       Omega I      =     4.183723586
        ================       Omega D      =     0.009259596
                               Omega OD     =     0.479878174
    Final Spread (Ang^2)       Omega Total  =     4.672861356
 ------------------------------------------------------------------------------

 Writing checkpoint file wannier.chk... done


 *===========================================================================*
 |                             TIMING INFORMATION                            |
 *===========================================================================*
 |    Tag                                                Ncalls      Time (s)|
 |---------------------------------------------------------------------------|
 |kmesh: get                                        :         1         0.060|
 |overlap: read                                     :         1         0.003|
 |wann: main                                        :         1         0.060|
 |plot: main                                        :         1         0.000|
 *---------------------------------------------------------------------------*
