 written on 29Mar2022 at 16:40:07 
          64           8
    0.31728660875262    0.31728660875262    0.31728660875262    1.24167096930768
   -0.31728660875262   -0.31728660875262    0.31728660875262    1.24167096930768
   -0.31728660875262    0.31728660875262   -0.31728660875262    1.24167096930768
   -0.31728660875262    0.31728660875262    0.31728660875262    1.24167096930768
    0.31728660875262   -0.31728660875262    0.31728660875262    1.24167096930768
   -0.31728660875262   -0.31728660875262   -0.31728660875262    1.24167096930768
    0.31728660875262    0.31728660875262   -0.31728660875262    1.24167096930768
    0.31728660875262   -0.31728660875262   -0.31728660875262    1.24167096930768
   -0.31728660875262   -0.31728660875262   -0.31728660875262    1.24167096930768
    0.31728660875262    0.31728660875262    0.31728660875262    1.24167096930768
   -0.31728660875262   -0.31728660875262    0.31728660875262    1.24167096930768
   -0.31728660875262    0.31728660875262   -0.31728660875262    1.24167096930768
   -0.31728660875262    0.31728660875262    0.31728660875262    1.24167096930768
    0.31728660875262   -0.31728660875262    0.31728660875262    1.24167096930768
    0.31728660875262    0.31728660875262   -0.31728660875262    1.24167096930768
    0.31728660875262   -0.31728660875262   -0.31728660875262    1.24167096930768
   -0.31728660875262   -0.31728660875262   -0.31728660875262    1.24167096930768
    0.31728660875262    0.31728660875262    0.31728660875262    1.24167096930768
   -0.31728660875262   -0.31728660875262    0.31728660875262    1.24167096930768
   -0.31728660875262    0.31728660875262   -0.31728660875262    1.24167096930768
   -0.31728660875262    0.31728660875262    0.31728660875262    1.24167096930768
    0.31728660875262   -0.31728660875262    0.31728660875262    1.24167096930768
    0.31728660875262    0.31728660875262   -0.31728660875262    1.24167096930768
    0.31728660875262   -0.31728660875262   -0.31728660875262    1.24167096930768
   -0.31728660875262   -0.31728660875262   -0.31728660875262    1.24167096930768
   -0.31728660875262   -0.31728660875262    0.31728660875262    1.24167096930768
   -0.31728660875262    0.31728660875262   -0.31728660875262    1.24167096930768
    0.31728660875262    0.31728660875262    0.31728660875262    1.24167096930768
   -0.31728660875262    0.31728660875262    0.31728660875262    1.24167096930768
    0.31728660875262   -0.31728660875262    0.31728660875262    1.24167096930768
    0.31728660875262    0.31728660875262   -0.31728660875262    1.24167096930768
    0.31728660875262   -0.31728660875262   -0.31728660875262    1.24167096930768
    0.31728660875262    0.31728660875262   -0.31728660875262    1.24167096930768
    0.31728660875262    0.31728660875262    0.31728660875262    1.24167096930768
   -0.31728660875262   -0.31728660875262    0.31728660875262    1.24167096930768
   -0.31728660875262    0.31728660875262   -0.31728660875262    1.24167096930768
   -0.31728660875262    0.31728660875262    0.31728660875262    1.24167096930768
    0.31728660875262   -0.31728660875262    0.31728660875262    1.24167096930768
   -0.31728660875262   -0.31728660875262   -0.31728660875262    1.24167096930768
    0.31728660875262   -0.31728660875262   -0.31728660875262    1.24167096930768
    0.31728660875262    0.31728660875262   -0.31728660875262    1.24167096930768
   -0.31728660875262   -0.31728660875262   -0.31728660875262    1.24167096930768
    0.31728660875262    0.31728660875262    0.31728660875262    1.24167096930768
   -0.31728660875262   -0.31728660875262    0.31728660875262    1.24167096930768
   -0.31728660875262    0.31728660875262   -0.31728660875262    1.24167096930768
   -0.31728660875262    0.31728660875262    0.31728660875262    1.24167096930768
    0.31728660875262   -0.31728660875262   -0.31728660875262    1.24167096930768
    0.31728660875262   -0.31728660875262    0.31728660875262    1.24167096930768
    0.31728660875262    0.31728660875262   -0.31728660875262    1.24167096930768
   -0.31728660875262   -0.31728660875262   -0.31728660875262    1.24167096930768
    0.31728660875262    0.31728660875262    0.31728660875262    1.24167096930768
   -0.31728660875262   -0.31728660875262    0.31728660875262    1.24167096930768
   -0.31728660875262    0.31728660875262   -0.31728660875262    1.24167096930768
   -0.31728660875262    0.31728660875262    0.31728660875262    1.24167096930768
    0.31728660875262   -0.31728660875262   -0.31728660875262    1.24167096930768
    0.31728660875262   -0.31728660875262    0.31728660875262    1.24167096930768
    0.31728660875262    0.31728660875262   -0.31728660875262    1.24167096930768
   -0.31728660875262   -0.31728660875262   -0.31728660875262    1.24167096930768
   -0.31728660875262   -0.31728660875262    0.31728660875262    1.24167096930768
   -0.31728660875262    0.31728660875262   -0.31728660875262    1.24167096930768
    0.31728660875262    0.31728660875262    0.31728660875262    1.24167096930768
   -0.31728660875262    0.31728660875262    0.31728660875262    1.24167096930768
    0.31728660875262   -0.31728660875262   -0.31728660875262    1.24167096930768
    0.31728660875262   -0.31728660875262    0.31728660875262    1.24167096930768
    0.31728660875262    0.31728660875262   -0.31728660875262    1.24167096930768
    0.31728660875262    0.31728660875262    0.31728660875262    1.24167096930768
   -0.31728660875262   -0.31728660875262    0.31728660875262    1.24167096930768
   -0.31728660875262    0.31728660875262   -0.31728660875262    1.24167096930768
   -0.31728660875262    0.31728660875262    0.31728660875262    1.24167096930768
    0.31728660875262   -0.31728660875262    0.31728660875262    1.24167096930768
   -0.31728660875262   -0.31728660875262   -0.31728660875262    1.24167096930768
    0.31728660875262   -0.31728660875262   -0.31728660875262    1.24167096930768
    0.31728660875262    0.31728660875262   -0.31728660875262    1.24167096930768
   -0.31728660875262   -0.31728660875262   -0.31728660875262    1.24167096930768
    0.31728660875262    0.31728660875262    0.31728660875262    1.24167096930768
   -0.31728660875262   -0.31728660875262    0.31728660875262    1.24167096930768
   -0.31728660875262    0.31728660875262   -0.31728660875262    1.24167096930768
   -0.31728660875262    0.31728660875262    0.31728660875262    1.24167096930768
    0.31728660875262   -0.31728660875262   -0.31728660875262    1.24167096930768
    0.31728660875262   -0.31728660875262    0.31728660875262    1.24167096930768
    0.31728660875262    0.31728660875262   -0.31728660875262    1.24167096930768
   -0.31728660875262   -0.31728660875262   -0.31728660875262    1.24167096930768
    0.31728660875262    0.31728660875262    0.31728660875262    1.24167096930768
   -0.31728660875262   -0.31728660875262    0.31728660875262    1.24167096930768
   -0.31728660875262    0.31728660875262   -0.31728660875262    1.24167096930768
   -0.31728660875262    0.31728660875262    0.31728660875262    1.24167096930768
    0.31728660875262   -0.31728660875262   -0.31728660875262    1.24167096930768
    0.31728660875262   -0.31728660875262    0.31728660875262    1.24167096930768
    0.31728660875262    0.31728660875262   -0.31728660875262    1.24167096930768
   -0.31728660875262   -0.31728660875262   -0.31728660875262    1.24167096930768
   -0.31728660875262   -0.31728660875262    0.31728660875262    1.24167096930768
   -0.31728660875262    0.31728660875262   -0.31728660875262    1.24167096930768
    0.31728660875262    0.31728660875262    0.31728660875262    1.24167096930768
   -0.31728660875262    0.31728660875262    0.31728660875262    1.24167096930768
    0.31728660875262   -0.31728660875262   -0.31728660875262    1.24167096930768
    0.31728660875262   -0.31728660875262    0.31728660875262    1.24167096930768
    0.31728660875262    0.31728660875262   -0.31728660875262    1.24167096930768
    0.31728660875262    0.31728660875262    0.31728660875262    1.24167096930768
   -0.31728660875262    0.31728660875262   -0.31728660875262    1.24167096930768
   -0.31728660875262   -0.31728660875262    0.31728660875262    1.24167096930768
   -0.31728660875262    0.31728660875262    0.31728660875262    1.24167096930768
    0.31728660875262   -0.31728660875262    0.31728660875262    1.24167096930768
   -0.31728660875262   -0.31728660875262   -0.31728660875262    1.24167096930768
    0.31728660875262   -0.31728660875262   -0.31728660875262    1.24167096930768
    0.31728660875262    0.31728660875262   -0.31728660875262    1.24167096930768
   -0.31728660875262   -0.31728660875262   -0.31728660875262    1.24167096930768
    0.31728660875262    0.31728660875262    0.31728660875262    1.24167096930768
   -0.31728660875262    0.31728660875262   -0.31728660875262    1.24167096930768
   -0.31728660875262   -0.31728660875262    0.31728660875262    1.24167096930768
   -0.31728660875262    0.31728660875262    0.31728660875262    1.24167096930768
    0.31728660875262   -0.31728660875262   -0.31728660875262    1.24167096930768
    0.31728660875262   -0.31728660875262    0.31728660875262    1.24167096930768
    0.31728660875262    0.31728660875262   -0.31728660875262    1.24167096930768
   -0.31728660875262   -0.31728660875262   -0.31728660875262    1.24167096930768
    0.31728660875262    0.31728660875262    0.31728660875262    1.24167096930768
   -0.31728660875262    0.31728660875262   -0.31728660875262    1.24167096930768
   -0.31728660875262   -0.31728660875262    0.31728660875262    1.24167096930768
   -0.31728660875262    0.31728660875262    0.31728660875262    1.24167096930768
    0.31728660875262   -0.31728660875262   -0.31728660875262    1.24167096930768
    0.31728660875262   -0.31728660875262    0.31728660875262    1.24167096930768
    0.31728660875262    0.31728660875262   -0.31728660875262    1.24167096930768
   -0.31728660875262   -0.31728660875262   -0.31728660875262    1.24167096930768
   -0.31728660875262    0.31728660875262   -0.31728660875262    1.24167096930768
   -0.31728660875262   -0.31728660875262    0.31728660875262    1.24167096930768
    0.31728660875262    0.31728660875262    0.31728660875262    1.24167096930768
    0.31728660875262   -0.31728660875262   -0.31728660875262    1.24167096930768
    0.31728660875262   -0.31728660875262    0.31728660875262    1.24167096930768
   -0.31728660875262    0.31728660875262    0.31728660875262    1.24167096930768
    0.31728660875262   -0.31728660875262    0.31728660875262    1.24167096930768
    0.31728660875262    0.31728660875262    0.31728660875262    1.24167096930768
   -0.31728660875262   -0.31728660875262    0.31728660875262    1.24167096930768
   -0.31728660875262    0.31728660875262   -0.31728660875262    1.24167096930768
   -0.31728660875262    0.31728660875262    0.31728660875262    1.24167096930768
   -0.31728660875262   -0.31728660875262   -0.31728660875262    1.24167096930768
    0.31728660875262    0.31728660875262   -0.31728660875262    1.24167096930768
    0.31728660875262   -0.31728660875262   -0.31728660875262    1.24167096930768
    0.31728660875262   -0.31728660875262    0.31728660875262    1.24167096930768
   -0.31728660875262   -0.31728660875262   -0.31728660875262    1.24167096930768
    0.31728660875262    0.31728660875262    0.31728660875262    1.24167096930768
   -0.31728660875262   -0.31728660875262    0.31728660875262    1.24167096930768
   -0.31728660875262    0.31728660875262   -0.31728660875262    1.24167096930768
   -0.31728660875262    0.31728660875262    0.31728660875262    1.24167096930768
    0.31728660875262   -0.31728660875262   -0.31728660875262    1.24167096930768
    0.31728660875262    0.31728660875262   -0.31728660875262    1.24167096930768
    0.31728660875262   -0.31728660875262    0.31728660875262    1.24167096930768
   -0.31728660875262   -0.31728660875262   -0.31728660875262    1.24167096930768
    0.31728660875262    0.31728660875262    0.31728660875262    1.24167096930768
   -0.31728660875262   -0.31728660875262    0.31728660875262    1.24167096930768
   -0.31728660875262    0.31728660875262   -0.31728660875262    1.24167096930768
   -0.31728660875262    0.31728660875262    0.31728660875262    1.24167096930768
    0.31728660875262   -0.31728660875262   -0.31728660875262    1.24167096930768
    0.31728660875262    0.31728660875262   -0.31728660875262    1.24167096930768
    0.31728660875262   -0.31728660875262    0.31728660875262    1.24167096930768
   -0.31728660875262   -0.31728660875262   -0.31728660875262    1.24167096930768
   -0.31728660875262   -0.31728660875262    0.31728660875262    1.24167096930768
   -0.31728660875262    0.31728660875262   -0.31728660875262    1.24167096930768
    0.31728660875262    0.31728660875262    0.31728660875262    1.24167096930768
   -0.31728660875262    0.31728660875262    0.31728660875262    1.24167096930768
    0.31728660875262   -0.31728660875262   -0.31728660875262    1.24167096930768
    0.31728660875262    0.31728660875262   -0.31728660875262    1.24167096930768
    0.31728660875262   -0.31728660875262    0.31728660875262    1.24167096930768
    0.31728660875262    0.31728660875262   -0.31728660875262    1.24167096930768
    0.31728660875262    0.31728660875262    0.31728660875262    1.24167096930768
   -0.31728660875262   -0.31728660875262    0.31728660875262    1.24167096930768
   -0.31728660875262    0.31728660875262   -0.31728660875262    1.24167096930768
   -0.31728660875262    0.31728660875262    0.31728660875262    1.24167096930768
    0.31728660875262   -0.31728660875262   -0.31728660875262    1.24167096930768
   -0.31728660875262   -0.31728660875262   -0.31728660875262    1.24167096930768
    0.31728660875262   -0.31728660875262   -0.31728660875262    1.24167096930768
    0.31728660875262   -0.31728660875262    0.31728660875262    1.24167096930768
    0.31728660875262    0.31728660875262   -0.31728660875262    1.24167096930768
   -0.31728660875262   -0.31728660875262   -0.31728660875262    1.24167096930768
    0.31728660875262    0.31728660875262    0.31728660875262    1.24167096930768
   -0.31728660875262   -0.31728660875262    0.31728660875262    1.24167096930768
   -0.31728660875262    0.31728660875262   -0.31728660875262    1.24167096930768
   -0.31728660875262    0.31728660875262    0.31728660875262    1.24167096930768
    0.31728660875262   -0.31728660875262   -0.31728660875262    1.24167096930768
    0.31728660875262   -0.31728660875262    0.31728660875262    1.24167096930768
    0.31728660875262    0.31728660875262   -0.31728660875262    1.24167096930768
   -0.31728660875262   -0.31728660875262   -0.31728660875262    1.24167096930768
    0.31728660875262    0.31728660875262    0.31728660875262    1.24167096930768
   -0.31728660875262   -0.31728660875262    0.31728660875262    1.24167096930768
   -0.31728660875262    0.31728660875262   -0.31728660875262    1.24167096930768
   -0.31728660875262    0.31728660875262    0.31728660875262    1.24167096930768
    0.31728660875262   -0.31728660875262   -0.31728660875262    1.24167096930768
    0.31728660875262   -0.31728660875262    0.31728660875262    1.24167096930768
    0.31728660875262    0.31728660875262   -0.31728660875262    1.24167096930768
   -0.31728660875262   -0.31728660875262   -0.31728660875262    1.24167096930768
   -0.31728660875262   -0.31728660875262    0.31728660875262    1.24167096930768
   -0.31728660875262    0.31728660875262   -0.31728660875262    1.24167096930768
    0.31728660875262    0.31728660875262    0.31728660875262    1.24167096930768
   -0.31728660875262    0.31728660875262    0.31728660875262    1.24167096930768
    0.31728660875262   -0.31728660875262    0.31728660875262    1.24167096930768
    0.31728660875262    0.31728660875262   -0.31728660875262    1.24167096930768
    0.31728660875262    0.31728660875262    0.31728660875262    1.24167096930768
   -0.31728660875262   -0.31728660875262    0.31728660875262    1.24167096930768
   -0.31728660875262    0.31728660875262   -0.31728660875262    1.24167096930768
   -0.31728660875262    0.31728660875262    0.31728660875262    1.24167096930768
    0.31728660875262   -0.31728660875262   -0.31728660875262    1.24167096930768
   -0.31728660875262   -0.31728660875262   -0.31728660875262    1.24167096930768
    0.31728660875262   -0.31728660875262   -0.31728660875262    1.24167096930768
    0.31728660875262   -0.31728660875262    0.31728660875262    1.24167096930768
    0.31728660875262    0.31728660875262   -0.31728660875262    1.24167096930768
   -0.31728660875262   -0.31728660875262   -0.31728660875262    1.24167096930768
    0.31728660875262    0.31728660875262    0.31728660875262    1.24167096930768
   -0.31728660875262   -0.31728660875262    0.31728660875262    1.24167096930768
   -0.31728660875262    0.31728660875262   -0.31728660875262    1.24167096930768
   -0.31728660875262    0.31728660875262    0.31728660875262    1.24167096930768
    0.31728660875262   -0.31728660875262   -0.31728660875262    1.24167096930768
    0.31728660875262   -0.31728660875262    0.31728660875262    1.24167096930768
    0.31728660875262    0.31728660875262   -0.31728660875262    1.24167096930768
   -0.31728660875262   -0.31728660875262   -0.31728660875262    1.24167096930768
    0.31728660875262    0.31728660875262    0.31728660875262    1.24167096930768
   -0.31728660875262   -0.31728660875262    0.31728660875262    1.24167096930768
   -0.31728660875262    0.31728660875262   -0.31728660875262    1.24167096930768
   -0.31728660875262    0.31728660875262    0.31728660875262    1.24167096930768
    0.31728660875262   -0.31728660875262   -0.31728660875262    1.24167096930768
    0.31728660875262   -0.31728660875262    0.31728660875262    1.24167096930768
    0.31728660875262    0.31728660875262   -0.31728660875262    1.24167096930768
   -0.31728660875262   -0.31728660875262   -0.31728660875262    1.24167096930768
   -0.31728660875262   -0.31728660875262    0.31728660875262    1.24167096930768
   -0.31728660875262    0.31728660875262   -0.31728660875262    1.24167096930768
    0.31728660875262    0.31728660875262    0.31728660875262    1.24167096930768
   -0.31728660875262    0.31728660875262    0.31728660875262    1.24167096930768
    0.31728660875262   -0.31728660875262    0.31728660875262    1.24167096930768
    0.31728660875262    0.31728660875262   -0.31728660875262    1.24167096930768
    0.31728660875262    0.31728660875262    0.31728660875262    1.24167096930768
   -0.31728660875262    0.31728660875262   -0.31728660875262    1.24167096930768
   -0.31728660875262   -0.31728660875262    0.31728660875262    1.24167096930768
   -0.31728660875262    0.31728660875262    0.31728660875262    1.24167096930768
    0.31728660875262   -0.31728660875262   -0.31728660875262    1.24167096930768
   -0.31728660875262   -0.31728660875262   -0.31728660875262    1.24167096930768
    0.31728660875262   -0.31728660875262   -0.31728660875262    1.24167096930768
    0.31728660875262   -0.31728660875262    0.31728660875262    1.24167096930768
    0.31728660875262    0.31728660875262   -0.31728660875262    1.24167096930768
   -0.31728660875262   -0.31728660875262   -0.31728660875262    1.24167096930768
    0.31728660875262    0.31728660875262    0.31728660875262    1.24167096930768
   -0.31728660875262    0.31728660875262   -0.31728660875262    1.24167096930768
   -0.31728660875262   -0.31728660875262    0.31728660875262    1.24167096930768
   -0.31728660875262    0.31728660875262    0.31728660875262    1.24167096930768
    0.31728660875262   -0.31728660875262   -0.31728660875262    1.24167096930768
    0.31728660875262   -0.31728660875262    0.31728660875262    1.24167096930768
    0.31728660875262    0.31728660875262   -0.31728660875262    1.24167096930768
   -0.31728660875262   -0.31728660875262   -0.31728660875262    1.24167096930768
    0.31728660875262    0.31728660875262    0.31728660875262    1.24167096930768
   -0.31728660875262    0.31728660875262   -0.31728660875262    1.24167096930768
   -0.31728660875262   -0.31728660875262    0.31728660875262    1.24167096930768
   -0.31728660875262    0.31728660875262    0.31728660875262    1.24167096930768
    0.31728660875262   -0.31728660875262   -0.31728660875262    1.24167096930768
    0.31728660875262   -0.31728660875262    0.31728660875262    1.24167096930768
    0.31728660875262    0.31728660875262   -0.31728660875262    1.24167096930768
   -0.31728660875262   -0.31728660875262   -0.31728660875262    1.24167096930768
   -0.31728660875262    0.31728660875262   -0.31728660875262    1.24167096930768
   -0.31728660875262   -0.31728660875262    0.31728660875262    1.24167096930768
    0.31728660875262    0.31728660875262    0.31728660875262    1.24167096930768
   -0.31728660875262    0.31728660875262    0.31728660875262    1.24167096930768
    0.31728660875262   -0.31728660875262    0.31728660875262    1.24167096930768
    0.31728660875262    0.31728660875262    0.31728660875262    1.24167096930768
   -0.31728660875262   -0.31728660875262    0.31728660875262    1.24167096930768
   -0.31728660875262    0.31728660875262   -0.31728660875262    1.24167096930768
   -0.31728660875262    0.31728660875262    0.31728660875262    1.24167096930768
   -0.31728660875262   -0.31728660875262   -0.31728660875262    1.24167096930768
    0.31728660875262    0.31728660875262   -0.31728660875262    1.24167096930768
    0.31728660875262   -0.31728660875262   -0.31728660875262    1.24167096930768
    0.31728660875262   -0.31728660875262    0.31728660875262    1.24167096930768
   -0.31728660875262   -0.31728660875262   -0.31728660875262    1.24167096930768
    0.31728660875262    0.31728660875262    0.31728660875262    1.24167096930768
   -0.31728660875262   -0.31728660875262    0.31728660875262    1.24167096930768
   -0.31728660875262    0.31728660875262   -0.31728660875262    1.24167096930768
   -0.31728660875262    0.31728660875262    0.31728660875262    1.24167096930768
    0.31728660875262   -0.31728660875262   -0.31728660875262    1.24167096930768
    0.31728660875262    0.31728660875262   -0.31728660875262    1.24167096930768
    0.31728660875262   -0.31728660875262    0.31728660875262    1.24167096930768
   -0.31728660875262   -0.31728660875262   -0.31728660875262    1.24167096930768
    0.31728660875262    0.31728660875262    0.31728660875262    1.24167096930768
   -0.31728660875262   -0.31728660875262    0.31728660875262    1.24167096930768
   -0.31728660875262    0.31728660875262   -0.31728660875262    1.24167096930768
   -0.31728660875262    0.31728660875262    0.31728660875262    1.24167096930768
    0.31728660875262   -0.31728660875262   -0.31728660875262    1.24167096930768
    0.31728660875262    0.31728660875262   -0.31728660875262    1.24167096930768
    0.31728660875262   -0.31728660875262    0.31728660875262    1.24167096930768
   -0.31728660875262   -0.31728660875262   -0.31728660875262    1.24167096930768
   -0.31728660875262   -0.31728660875262    0.31728660875262    1.24167096930768
   -0.31728660875262    0.31728660875262   -0.31728660875262    1.24167096930768
    0.31728660875262    0.31728660875262    0.31728660875262    1.24167096930768
   -0.31728660875262    0.31728660875262    0.31728660875262    1.24167096930768
    0.31728660875262   -0.31728660875262   -0.31728660875262    1.24167096930768
    0.31728660875262    0.31728660875262   -0.31728660875262    1.24167096930768
    0.31728660875262   -0.31728660875262    0.31728660875262    1.24167096930768
    0.31728660875262    0.31728660875262   -0.31728660875262    1.24167096930768
    0.31728660875262    0.31728660875262    0.31728660875262    1.24167096930768
   -0.31728660875262   -0.31728660875262    0.31728660875262    1.24167096930768
   -0.31728660875262    0.31728660875262   -0.31728660875262    1.24167096930768
   -0.31728660875262    0.31728660875262    0.31728660875262    1.24167096930768
    0.31728660875262   -0.31728660875262   -0.31728660875262    1.24167096930768
   -0.31728660875262   -0.31728660875262   -0.31728660875262    1.24167096930768
    0.31728660875262   -0.31728660875262   -0.31728660875262    1.24167096930768
    0.31728660875262   -0.31728660875262    0.31728660875262    1.24167096930768
    0.31728660875262    0.31728660875262   -0.31728660875262    1.24167096930768
   -0.31728660875262   -0.31728660875262   -0.31728660875262    1.24167096930768
    0.31728660875262    0.31728660875262    0.31728660875262    1.24167096930768
   -0.31728660875262   -0.31728660875262    0.31728660875262    1.24167096930768
   -0.31728660875262    0.31728660875262   -0.31728660875262    1.24167096930768
   -0.31728660875262    0.31728660875262    0.31728660875262    1.24167096930768
    0.31728660875262   -0.31728660875262   -0.31728660875262    1.24167096930768
    0.31728660875262   -0.31728660875262    0.31728660875262    1.24167096930768
    0.31728660875262    0.31728660875262   -0.31728660875262    1.24167096930768
   -0.31728660875262   -0.31728660875262   -0.31728660875262    1.24167096930768
    0.31728660875262    0.31728660875262    0.31728660875262    1.24167096930768
   -0.31728660875262   -0.31728660875262    0.31728660875262    1.24167096930768
   -0.31728660875262    0.31728660875262   -0.31728660875262    1.24167096930768
   -0.31728660875262    0.31728660875262    0.31728660875262    1.24167096930768
    0.31728660875262   -0.31728660875262   -0.31728660875262    1.24167096930768
    0.31728660875262   -0.31728660875262    0.31728660875262    1.24167096930768
    0.31728660875262    0.31728660875262   -0.31728660875262    1.24167096930768
   -0.31728660875262   -0.31728660875262   -0.31728660875262    1.24167096930768
   -0.31728660875262   -0.31728660875262    0.31728660875262    1.24167096930768
   -0.31728660875262    0.31728660875262   -0.31728660875262    1.24167096930768
    0.31728660875262    0.31728660875262    0.31728660875262    1.24167096930768
   -0.31728660875262    0.31728660875262    0.31728660875262    1.24167096930768
    0.31728660875262   -0.31728660875262    0.31728660875262    1.24167096930768
    0.31728660875262    0.31728660875262   -0.31728660875262    1.24167096930768
    0.31728660875262    0.31728660875262    0.31728660875262    1.24167096930768
   -0.31728660875262   -0.31728660875262    0.31728660875262    1.24167096930768
   -0.31728660875262    0.31728660875262   -0.31728660875262    1.24167096930768
   -0.31728660875262    0.31728660875262    0.31728660875262    1.24167096930768
    0.31728660875262   -0.31728660875262   -0.31728660875262    1.24167096930768
   -0.31728660875262   -0.31728660875262   -0.31728660875262    1.24167096930768
    0.31728660875262   -0.31728660875262   -0.31728660875262    1.24167096930768
    0.31728660875262   -0.31728660875262    0.31728660875262    1.24167096930768
    0.31728660875262    0.31728660875262   -0.31728660875262    1.24167096930768
   -0.31728660875262   -0.31728660875262   -0.31728660875262    1.24167096930768
    0.31728660875262    0.31728660875262    0.31728660875262    1.24167096930768
   -0.31728660875262   -0.31728660875262    0.31728660875262    1.24167096930768
   -0.31728660875262    0.31728660875262   -0.31728660875262    1.24167096930768
   -0.31728660875262    0.31728660875262    0.31728660875262    1.24167096930768
    0.31728660875262   -0.31728660875262   -0.31728660875262    1.24167096930768
    0.31728660875262   -0.31728660875262    0.31728660875262    1.24167096930768
    0.31728660875262    0.31728660875262   -0.31728660875262    1.24167096930768
   -0.31728660875262   -0.31728660875262   -0.31728660875262    1.24167096930768
    0.31728660875262    0.31728660875262    0.31728660875262    1.24167096930768
   -0.31728660875262   -0.31728660875262    0.31728660875262    1.24167096930768
   -0.31728660875262    0.31728660875262   -0.31728660875262    1.24167096930768
   -0.31728660875262    0.31728660875262    0.31728660875262    1.24167096930768
    0.31728660875262   -0.31728660875262   -0.31728660875262    1.24167096930768
    0.31728660875262   -0.31728660875262    0.31728660875262    1.24167096930768
    0.31728660875262    0.31728660875262   -0.31728660875262    1.24167096930768
   -0.31728660875262   -0.31728660875262   -0.31728660875262    1.24167096930768
   -0.31728660875262   -0.31728660875262    0.31728660875262    1.24167096930768
   -0.31728660875262    0.31728660875262   -0.31728660875262    1.24167096930768
    0.31728660875262    0.31728660875262    0.31728660875262    1.24167096930768
   -0.31728660875262    0.31728660875262    0.31728660875262    1.24167096930768
    0.31728660875262   -0.31728660875262    0.31728660875262    1.24167096930768
    0.31728660875262    0.31728660875262   -0.31728660875262    1.24167096930768
    0.31728660875262    0.31728660875262    0.31728660875262    1.24167096930768
   -0.31728660875262    0.31728660875262   -0.31728660875262    1.24167096930768
   -0.31728660875262   -0.31728660875262    0.31728660875262    1.24167096930768
   -0.31728660875262    0.31728660875262    0.31728660875262    1.24167096930768
    0.31728660875262   -0.31728660875262   -0.31728660875262    1.24167096930768
   -0.31728660875262   -0.31728660875262   -0.31728660875262    1.24167096930768
    0.31728660875262   -0.31728660875262   -0.31728660875262    1.24167096930768
    0.31728660875262   -0.31728660875262    0.31728660875262    1.24167096930768
    0.31728660875262    0.31728660875262   -0.31728660875262    1.24167096930768
   -0.31728660875262   -0.31728660875262   -0.31728660875262    1.24167096930768
    0.31728660875262    0.31728660875262    0.31728660875262    1.24167096930768
   -0.31728660875262    0.31728660875262   -0.31728660875262    1.24167096930768
   -0.31728660875262   -0.31728660875262    0.31728660875262    1.24167096930768
   -0.31728660875262    0.31728660875262    0.31728660875262    1.24167096930768
    0.31728660875262   -0.31728660875262   -0.31728660875262    1.24167096930768
    0.31728660875262   -0.31728660875262    0.31728660875262    1.24167096930768
    0.31728660875262    0.31728660875262   -0.31728660875262    1.24167096930768
   -0.31728660875262   -0.31728660875262   -0.31728660875262    1.24167096930768
    0.31728660875262    0.31728660875262    0.31728660875262    1.24167096930768
   -0.31728660875262    0.31728660875262   -0.31728660875262    1.24167096930768
   -0.31728660875262   -0.31728660875262    0.31728660875262    1.24167096930768
   -0.31728660875262    0.31728660875262    0.31728660875262    1.24167096930768
    0.31728660875262   -0.31728660875262   -0.31728660875262    1.24167096930768
    0.31728660875262   -0.31728660875262    0.31728660875262    1.24167096930768
    0.31728660875262    0.31728660875262   -0.31728660875262    1.24167096930768
   -0.31728660875262   -0.31728660875262   -0.31728660875262    1.24167096930768
   -0.31728660875262    0.31728660875262   -0.31728660875262    1.24167096930768
   -0.31728660875262   -0.31728660875262    0.31728660875262    1.24167096930768
    0.31728660875262    0.31728660875262    0.31728660875262    1.24167096930768
   -0.31728660875262    0.31728660875262    0.31728660875262    1.24167096930768
    0.31728660875262   -0.31728660875262    0.31728660875262    1.24167096930768
    0.31728660875262    0.31728660875262    0.31728660875262    1.24167096930768
   -0.31728660875262   -0.31728660875262    0.31728660875262    1.24167096930768
   -0.31728660875262    0.31728660875262   -0.31728660875262    1.24167096930768
   -0.31728660875262    0.31728660875262    0.31728660875262    1.24167096930768
   -0.31728660875262   -0.31728660875262   -0.31728660875262    1.24167096930768
    0.31728660875262    0.31728660875262   -0.31728660875262    1.24167096930768
    0.31728660875262   -0.31728660875262   -0.31728660875262    1.24167096930768
    0.31728660875262   -0.31728660875262    0.31728660875262    1.24167096930768
   -0.31728660875262   -0.31728660875262   -0.31728660875262    1.24167096930768
    0.31728660875262    0.31728660875262    0.31728660875262    1.24167096930768
   -0.31728660875262   -0.31728660875262    0.31728660875262    1.24167096930768
   -0.31728660875262    0.31728660875262   -0.31728660875262    1.24167096930768
   -0.31728660875262    0.31728660875262    0.31728660875262    1.24167096930768
    0.31728660875262   -0.31728660875262   -0.31728660875262    1.24167096930768
    0.31728660875262    0.31728660875262   -0.31728660875262    1.24167096930768
    0.31728660875262   -0.31728660875262    0.31728660875262    1.24167096930768
   -0.31728660875262   -0.31728660875262   -0.31728660875262    1.24167096930768
    0.31728660875262    0.31728660875262    0.31728660875262    1.24167096930768
   -0.31728660875262   -0.31728660875262    0.31728660875262    1.24167096930768
   -0.31728660875262    0.31728660875262   -0.31728660875262    1.24167096930768
   -0.31728660875262    0.31728660875262    0.31728660875262    1.24167096930768
    0.31728660875262   -0.31728660875262   -0.31728660875262    1.24167096930768
    0.31728660875262    0.31728660875262   -0.31728660875262    1.24167096930768
    0.31728660875262   -0.31728660875262    0.31728660875262    1.24167096930768
   -0.31728660875262   -0.31728660875262   -0.31728660875262    1.24167096930768
   -0.31728660875262   -0.31728660875262    0.31728660875262    1.24167096930768
    0.31728660875262    0.31728660875262    0.31728660875262    1.24167096930768
   -0.31728660875262    0.31728660875262   -0.31728660875262    1.24167096930768
    0.31728660875262   -0.31728660875262   -0.31728660875262    1.24167096930768
    0.31728660875262    0.31728660875262   -0.31728660875262    1.24167096930768
   -0.31728660875262    0.31728660875262    0.31728660875262    1.24167096930768
    0.31728660875262   -0.31728660875262    0.31728660875262    1.24167096930768
    0.31728660875262    0.31728660875262   -0.31728660875262    1.24167096930768
    0.31728660875262    0.31728660875262    0.31728660875262    1.24167096930768
   -0.31728660875262   -0.31728660875262    0.31728660875262    1.24167096930768
   -0.31728660875262    0.31728660875262   -0.31728660875262    1.24167096930768
   -0.31728660875262    0.31728660875262    0.31728660875262    1.24167096930768
    0.31728660875262   -0.31728660875262   -0.31728660875262    1.24167096930768
   -0.31728660875262   -0.31728660875262   -0.31728660875262    1.24167096930768
    0.31728660875262   -0.31728660875262   -0.31728660875262    1.24167096930768
    0.31728660875262   -0.31728660875262    0.31728660875262    1.24167096930768
    0.31728660875262    0.31728660875262   -0.31728660875262    1.24167096930768
   -0.31728660875262   -0.31728660875262   -0.31728660875262    1.24167096930768
    0.31728660875262    0.31728660875262    0.31728660875262    1.24167096930768
   -0.31728660875262   -0.31728660875262    0.31728660875262    1.24167096930768
   -0.31728660875262    0.31728660875262   -0.31728660875262    1.24167096930768
   -0.31728660875262    0.31728660875262    0.31728660875262    1.24167096930768
    0.31728660875262   -0.31728660875262   -0.31728660875262    1.24167096930768
    0.31728660875262   -0.31728660875262    0.31728660875262    1.24167096930768
    0.31728660875262    0.31728660875262   -0.31728660875262    1.24167096930768
   -0.31728660875262   -0.31728660875262   -0.31728660875262    1.24167096930768
    0.31728660875262    0.31728660875262    0.31728660875262    1.24167096930768
   -0.31728660875262   -0.31728660875262    0.31728660875262    1.24167096930768
   -0.31728660875262    0.31728660875262   -0.31728660875262    1.24167096930768
   -0.31728660875262    0.31728660875262    0.31728660875262    1.24167096930768
    0.31728660875262   -0.31728660875262   -0.31728660875262    1.24167096930768
    0.31728660875262   -0.31728660875262    0.31728660875262    1.24167096930768
    0.31728660875262    0.31728660875262   -0.31728660875262    1.24167096930768
   -0.31728660875262   -0.31728660875262   -0.31728660875262    1.24167096930768
   -0.31728660875262   -0.31728660875262    0.31728660875262    1.24167096930768
    0.31728660875262    0.31728660875262    0.31728660875262    1.24167096930768
   -0.31728660875262    0.31728660875262   -0.31728660875262    1.24167096930768
   -0.31728660875262    0.31728660875262    0.31728660875262    1.24167096930768
    0.31728660875262   -0.31728660875262    0.31728660875262    1.24167096930768
    0.31728660875262    0.31728660875262   -0.31728660875262    1.24167096930768
    0.31728660875262    0.31728660875262    0.31728660875262    1.24167096930768
   -0.31728660875262   -0.31728660875262    0.31728660875262    1.24167096930768
   -0.31728660875262    0.31728660875262   -0.31728660875262    1.24167096930768
   -0.31728660875262    0.31728660875262    0.31728660875262    1.24167096930768
    0.31728660875262   -0.31728660875262   -0.31728660875262    1.24167096930768
   -0.31728660875262   -0.31728660875262   -0.31728660875262    1.24167096930768
    0.31728660875262   -0.31728660875262   -0.31728660875262    1.24167096930768
    0.31728660875262   -0.31728660875262    0.31728660875262    1.24167096930768
    0.31728660875262    0.31728660875262   -0.31728660875262    1.24167096930768
   -0.31728660875262   -0.31728660875262   -0.31728660875262    1.24167096930768
    0.31728660875262    0.31728660875262    0.31728660875262    1.24167096930768
   -0.31728660875262   -0.31728660875262    0.31728660875262    1.24167096930768
   -0.31728660875262    0.31728660875262   -0.31728660875262    1.24167096930768
   -0.31728660875262    0.31728660875262    0.31728660875262    1.24167096930768
    0.31728660875262   -0.31728660875262   -0.31728660875262    1.24167096930768
    0.31728660875262   -0.31728660875262    0.31728660875262    1.24167096930768
    0.31728660875262    0.31728660875262   -0.31728660875262    1.24167096930768
   -0.31728660875262   -0.31728660875262   -0.31728660875262    1.24167096930768
    0.31728660875262    0.31728660875262    0.31728660875262    1.24167096930768
   -0.31728660875262   -0.31728660875262    0.31728660875262    1.24167096930768
   -0.31728660875262    0.31728660875262   -0.31728660875262    1.24167096930768
   -0.31728660875262    0.31728660875262    0.31728660875262    1.24167096930768
    0.31728660875262   -0.31728660875262   -0.31728660875262    1.24167096930768
    0.31728660875262   -0.31728660875262    0.31728660875262    1.24167096930768
    0.31728660875262    0.31728660875262   -0.31728660875262    1.24167096930768
   -0.31728660875262   -0.31728660875262   -0.31728660875262    1.24167096930768
   -0.31728660875262   -0.31728660875262    0.31728660875262    1.24167096930768
    0.31728660875262    0.31728660875262    0.31728660875262    1.24167096930768
   -0.31728660875262    0.31728660875262   -0.31728660875262    1.24167096930768
   -0.31728660875262    0.31728660875262    0.31728660875262    1.24167096930768
    0.31728660875262   -0.31728660875262    0.31728660875262    1.24167096930768
    0.31728660875262    0.31728660875262   -0.31728660875262    1.24167096930768
    0.31728660875262    0.31728660875262    0.31728660875262    1.24167096930768
   -0.31728660875262   -0.31728660875262    0.31728660875262    1.24167096930768
   -0.31728660875262    0.31728660875262   -0.31728660875262    1.24167096930768
    0.31728660875262   -0.31728660875262   -0.31728660875262    1.24167096930768
   -0.31728660875262   -0.31728660875262   -0.31728660875262    1.24167096930768
   -0.31728660875262    0.31728660875262    0.31728660875262    1.24167096930768
    0.31728660875262   -0.31728660875262   -0.31728660875262    1.24167096930768
    0.31728660875262   -0.31728660875262    0.31728660875262    1.24167096930768
    0.31728660875262    0.31728660875262   -0.31728660875262    1.24167096930768
   -0.31728660875262   -0.31728660875262   -0.31728660875262    1.24167096930768
    0.31728660875262    0.31728660875262    0.31728660875262    1.24167096930768
   -0.31728660875262   -0.31728660875262    0.31728660875262    1.24167096930768
   -0.31728660875262    0.31728660875262   -0.31728660875262    1.24167096930768
   -0.31728660875262    0.31728660875262    0.31728660875262    1.24167096930768
    0.31728660875262   -0.31728660875262   -0.31728660875262    1.24167096930768
    0.31728660875262   -0.31728660875262    0.31728660875262    1.24167096930768
    0.31728660875262    0.31728660875262   -0.31728660875262    1.24167096930768
   -0.31728660875262   -0.31728660875262   -0.31728660875262    1.24167096930768
    0.31728660875262    0.31728660875262    0.31728660875262    1.24167096930768
   -0.31728660875262   -0.31728660875262    0.31728660875262    1.24167096930768
   -0.31728660875262    0.31728660875262   -0.31728660875262    1.24167096930768
   -0.31728660875262    0.31728660875262    0.31728660875262    1.24167096930768
    0.31728660875262   -0.31728660875262   -0.31728660875262    1.24167096930768
    0.31728660875262   -0.31728660875262    0.31728660875262    1.24167096930768
    0.31728660875262    0.31728660875262   -0.31728660875262    1.24167096930768
   -0.31728660875262   -0.31728660875262   -0.31728660875262    1.24167096930768
   -0.31728660875262    0.31728660875262    0.31728660875262    1.24167096930768
   -0.31728660875262   -0.31728660875262    0.31728660875262    1.24167096930768
    0.31728660875262    0.31728660875262    0.31728660875262    1.24167096930768
   -0.31728660875262    0.31728660875262   -0.31728660875262    1.24167096930768
