 written on 17Jun2018 at 10:46:33 
          64           8
    0.317287    0.317287    0.317287    1.241671
   -0.317287   -0.317287    0.317287    1.241671
   -0.317287    0.317287   -0.317287    1.241671
   -0.317287    0.317287    0.317287    1.241671
    0.317287   -0.317287    0.317287    1.241671
   -0.317287   -0.317287   -0.317287    1.241671
    0.317287    0.317287   -0.317287    1.241671
    0.317287   -0.317287   -0.317287    1.241671
   -0.317287   -0.317287   -0.317287    1.241671
    0.317287    0.317287    0.317287    1.241671
   -0.317287   -0.317287    0.317287    1.241671
   -0.317287    0.317287   -0.317287    1.241671
   -0.317287    0.317287    0.317287    1.241671
    0.317287   -0.317287    0.317287    1.241671
    0.317287    0.317287   -0.317287    1.241671
    0.317287   -0.317287   -0.317287    1.241671
   -0.317287   -0.317287   -0.317287    1.241671
    0.317287    0.317287    0.317287    1.241671
   -0.317287   -0.317287    0.317287    1.241671
   -0.317287    0.317287   -0.317287    1.241671
   -0.317287    0.317287    0.317287    1.241671
    0.317287   -0.317287    0.317287    1.241671
    0.317287    0.317287   -0.317287    1.241671
    0.317287   -0.317287   -0.317287    1.241671
   -0.317287   -0.317287   -0.317287    1.241671
   -0.317287   -0.317287    0.317287    1.241671
   -0.317287    0.317287   -0.317287    1.241671
    0.317287    0.317287    0.317287    1.241671
   -0.317287    0.317287    0.317287    1.241671
    0.317287   -0.317287    0.317287    1.241671
    0.317287    0.317287   -0.317287    1.241671
    0.317287   -0.317287   -0.317287    1.241671
    0.317287    0.317287   -0.317287    1.241671
    0.317287    0.317287    0.317287    1.241671
   -0.317287   -0.317287    0.317287    1.241671
   -0.317287    0.317287   -0.317287    1.241671
   -0.317287    0.317287    0.317287    1.241671
    0.317287   -0.317287    0.317287    1.241671
   -0.317287   -0.317287   -0.317287    1.241671
    0.317287   -0.317287   -0.317287    1.241671
    0.317287    0.317287   -0.317287    1.241671
   -0.317287   -0.317287   -0.317287    1.241671
    0.317287    0.317287    0.317287    1.241671
   -0.317287   -0.317287    0.317287    1.241671
   -0.317287    0.317287   -0.317287    1.241671
   -0.317287    0.317287    0.317287    1.241671
    0.317287   -0.317287   -0.317287    1.241671
    0.317287   -0.317287    0.317287    1.241671
    0.317287    0.317287   -0.317287    1.241671
   -0.317287   -0.317287   -0.317287    1.241671
    0.317287    0.317287    0.317287    1.241671
   -0.317287   -0.317287    0.317287    1.241671
   -0.317287    0.317287   -0.317287    1.241671
   -0.317287    0.317287    0.317287    1.241671
    0.317287   -0.317287   -0.317287    1.241671
    0.317287   -0.317287    0.317287    1.241671
    0.317287    0.317287   -0.317287    1.241671
   -0.317287   -0.317287   -0.317287    1.241671
   -0.317287   -0.317287    0.317287    1.241671
   -0.317287    0.317287   -0.317287    1.241671
    0.317287    0.317287    0.317287    1.241671
   -0.317287    0.317287    0.317287    1.241671
    0.317287   -0.317287   -0.317287    1.241671
    0.317287   -0.317287    0.317287    1.241671
    0.317287    0.317287   -0.317287    1.241671
    0.317287    0.317287    0.317287    1.241671
   -0.317287   -0.317287    0.317287    1.241671
   -0.317287    0.317287   -0.317287    1.241671
   -0.317287    0.317287    0.317287    1.241671
    0.317287   -0.317287    0.317287    1.241671
   -0.317287   -0.317287   -0.317287    1.241671
    0.317287   -0.317287   -0.317287    1.241671
    0.317287    0.317287   -0.317287    1.241671
   -0.317287   -0.317287   -0.317287    1.241671
    0.317287    0.317287    0.317287    1.241671
   -0.317287   -0.317287    0.317287    1.241671
   -0.317287    0.317287   -0.317287    1.241671
   -0.317287    0.317287    0.317287    1.241671
    0.317287   -0.317287   -0.317287    1.241671
    0.317287   -0.317287    0.317287    1.241671
    0.317287    0.317287   -0.317287    1.241671
   -0.317287   -0.317287   -0.317287    1.241671
    0.317287    0.317287    0.317287    1.241671
   -0.317287   -0.317287    0.317287    1.241671
   -0.317287    0.317287   -0.317287    1.241671
   -0.317287    0.317287    0.317287    1.241671
    0.317287   -0.317287   -0.317287    1.241671
    0.317287   -0.317287    0.317287    1.241671
    0.317287    0.317287   -0.317287    1.241671
   -0.317287   -0.317287   -0.317287    1.241671
   -0.317287   -0.317287    0.317287    1.241671
   -0.317287    0.317287   -0.317287    1.241671
    0.317287    0.317287    0.317287    1.241671
   -0.317287    0.317287    0.317287    1.241671
    0.317287   -0.317287   -0.317287    1.241671
    0.317287   -0.317287    0.317287    1.241671
    0.317287    0.317287   -0.317287    1.241671
    0.317287    0.317287    0.317287    1.241671
   -0.317287    0.317287   -0.317287    1.241671
   -0.317287   -0.317287    0.317287    1.241671
   -0.317287    0.317287    0.317287    1.241671
    0.317287   -0.317287    0.317287    1.241671
   -0.317287   -0.317287   -0.317287    1.241671
    0.317287   -0.317287   -0.317287    1.241671
    0.317287    0.317287   -0.317287    1.241671
   -0.317287   -0.317287   -0.317287    1.241671
    0.317287    0.317287    0.317287    1.241671
   -0.317287    0.317287   -0.317287    1.241671
   -0.317287   -0.317287    0.317287    1.241671
   -0.317287    0.317287    0.317287    1.241671
    0.317287   -0.317287   -0.317287    1.241671
    0.317287   -0.317287    0.317287    1.241671
    0.317287    0.317287   -0.317287    1.241671
   -0.317287   -0.317287   -0.317287    1.241671
    0.317287    0.317287    0.317287    1.241671
   -0.317287    0.317287   -0.317287    1.241671
   -0.317287   -0.317287    0.317287    1.241671
   -0.317287    0.317287    0.317287    1.241671
    0.317287   -0.317287   -0.317287    1.241671
    0.317287   -0.317287    0.317287    1.241671
    0.317287    0.317287   -0.317287    1.241671
   -0.317287   -0.317287   -0.317287    1.241671
   -0.317287    0.317287   -0.317287    1.241671
   -0.317287   -0.317287    0.317287    1.241671
    0.317287    0.317287    0.317287    1.241671
    0.317287   -0.317287   -0.317287    1.241671
    0.317287   -0.317287    0.317287    1.241671
   -0.317287    0.317287    0.317287    1.241671
    0.317287   -0.317287    0.317287    1.241671
    0.317287    0.317287    0.317287    1.241671
   -0.317287   -0.317287    0.317287    1.241671
   -0.317287    0.317287   -0.317287    1.241671
   -0.317287    0.317287    0.317287    1.241671
   -0.317287   -0.317287   -0.317287    1.241671
    0.317287    0.317287   -0.317287    1.241671
    0.317287   -0.317287   -0.317287    1.241671
    0.317287   -0.317287    0.317287    1.241671
   -0.317287   -0.317287   -0.317287    1.241671
    0.317287    0.317287    0.317287    1.241671
   -0.317287   -0.317287    0.317287    1.241671
   -0.317287    0.317287   -0.317287    1.241671
   -0.317287    0.317287    0.317287    1.241671
    0.317287   -0.317287   -0.317287    1.241671
    0.317287    0.317287   -0.317287    1.241671
    0.317287   -0.317287    0.317287    1.241671
   -0.317287   -0.317287   -0.317287    1.241671
    0.317287    0.317287    0.317287    1.241671
   -0.317287   -0.317287    0.317287    1.241671
   -0.317287    0.317287   -0.317287    1.241671
   -0.317287    0.317287    0.317287    1.241671
    0.317287   -0.317287   -0.317287    1.241671
    0.317287    0.317287   -0.317287    1.241671
    0.317287   -0.317287    0.317287    1.241671
   -0.317287   -0.317287   -0.317287    1.241671
   -0.317287   -0.317287    0.317287    1.241671
   -0.317287    0.317287   -0.317287    1.241671
    0.317287    0.317287    0.317287    1.241671
   -0.317287    0.317287    0.317287    1.241671
    0.317287   -0.317287   -0.317287    1.241671
    0.317287    0.317287   -0.317287    1.241671
    0.317287   -0.317287    0.317287    1.241671
    0.317287    0.317287   -0.317287    1.241671
    0.317287    0.317287    0.317287    1.241671
   -0.317287   -0.317287    0.317287    1.241671
   -0.317287    0.317287   -0.317287    1.241671
   -0.317287    0.317287    0.317287    1.241671
    0.317287   -0.317287   -0.317287    1.241671
   -0.317287   -0.317287   -0.317287    1.241671
    0.317287   -0.317287   -0.317287    1.241671
    0.317287   -0.317287    0.317287    1.241671
    0.317287    0.317287   -0.317287    1.241671
   -0.317287   -0.317287   -0.317287    1.241671
    0.317287    0.317287    0.317287    1.241671
   -0.317287   -0.317287    0.317287    1.241671
   -0.317287    0.317287   -0.317287    1.241671
   -0.317287    0.317287    0.317287    1.241671
    0.317287   -0.317287   -0.317287    1.241671
    0.317287   -0.317287    0.317287    1.241671
    0.317287    0.317287   -0.317287    1.241671
   -0.317287   -0.317287   -0.317287    1.241671
    0.317287    0.317287    0.317287    1.241671
   -0.317287   -0.317287    0.317287    1.241671
   -0.317287    0.317287   -0.317287    1.241671
   -0.317287    0.317287    0.317287    1.241671
    0.317287   -0.317287   -0.317287    1.241671
    0.317287   -0.317287    0.317287    1.241671
    0.317287    0.317287   -0.317287    1.241671
   -0.317287   -0.317287   -0.317287    1.241671
   -0.317287   -0.317287    0.317287    1.241671
   -0.317287    0.317287   -0.317287    1.241671
    0.317287    0.317287    0.317287    1.241671
   -0.317287    0.317287    0.317287    1.241671
    0.317287   -0.317287    0.317287    1.241671
    0.317287    0.317287   -0.317287    1.241671
    0.317287    0.317287    0.317287    1.241671
   -0.317287   -0.317287    0.317287    1.241671
   -0.317287    0.317287   -0.317287    1.241671
   -0.317287    0.317287    0.317287    1.241671
    0.317287   -0.317287   -0.317287    1.241671
   -0.317287   -0.317287   -0.317287    1.241671
    0.317287   -0.317287   -0.317287    1.241671
    0.317287   -0.317287    0.317287    1.241671
    0.317287    0.317287   -0.317287    1.241671
   -0.317287   -0.317287   -0.317287    1.241671
    0.317287    0.317287    0.317287    1.241671
   -0.317287   -0.317287    0.317287    1.241671
   -0.317287    0.317287   -0.317287    1.241671
   -0.317287    0.317287    0.317287    1.241671
    0.317287   -0.317287   -0.317287    1.241671
    0.317287   -0.317287    0.317287    1.241671
    0.317287    0.317287   -0.317287    1.241671
   -0.317287   -0.317287   -0.317287    1.241671
    0.317287    0.317287    0.317287    1.241671
   -0.317287   -0.317287    0.317287    1.241671
   -0.317287    0.317287   -0.317287    1.241671
   -0.317287    0.317287    0.317287    1.241671
    0.317287   -0.317287   -0.317287    1.241671
    0.317287   -0.317287    0.317287    1.241671
    0.317287    0.317287   -0.317287    1.241671
   -0.317287   -0.317287   -0.317287    1.241671
   -0.317287   -0.317287    0.317287    1.241671
   -0.317287    0.317287   -0.317287    1.241671
    0.317287    0.317287    0.317287    1.241671
   -0.317287    0.317287    0.317287    1.241671
    0.317287   -0.317287    0.317287    1.241671
    0.317287    0.317287   -0.317287    1.241671
    0.317287    0.317287    0.317287    1.241671
   -0.317287    0.317287   -0.317287    1.241671
   -0.317287   -0.317287    0.317287    1.241671
   -0.317287    0.317287    0.317287    1.241671
    0.317287   -0.317287   -0.317287    1.241671
   -0.317287   -0.317287   -0.317287    1.241671
    0.317287   -0.317287   -0.317287    1.241671
    0.317287   -0.317287    0.317287    1.241671
    0.317287    0.317287   -0.317287    1.241671
   -0.317287   -0.317287   -0.317287    1.241671
    0.317287    0.317287    0.317287    1.241671
   -0.317287    0.317287   -0.317287    1.241671
   -0.317287   -0.317287    0.317287    1.241671
   -0.317287    0.317287    0.317287    1.241671
    0.317287   -0.317287   -0.317287    1.241671
    0.317287   -0.317287    0.317287    1.241671
    0.317287    0.317287   -0.317287    1.241671
   -0.317287   -0.317287   -0.317287    1.241671
    0.317287    0.317287    0.317287    1.241671
   -0.317287    0.317287   -0.317287    1.241671
   -0.317287   -0.317287    0.317287    1.241671
   -0.317287    0.317287    0.317287    1.241671
    0.317287   -0.317287   -0.317287    1.241671
    0.317287   -0.317287    0.317287    1.241671
    0.317287    0.317287   -0.317287    1.241671
   -0.317287   -0.317287   -0.317287    1.241671
   -0.317287    0.317287   -0.317287    1.241671
   -0.317287   -0.317287    0.317287    1.241671
    0.317287    0.317287    0.317287    1.241671
   -0.317287    0.317287    0.317287    1.241671
    0.317287   -0.317287    0.317287    1.241671
    0.317287    0.317287    0.317287    1.241671
   -0.317287   -0.317287    0.317287    1.241671
   -0.317287    0.317287   -0.317287    1.241671
   -0.317287    0.317287    0.317287    1.241671
   -0.317287   -0.317287   -0.317287    1.241671
    0.317287    0.317287   -0.317287    1.241671
    0.317287   -0.317287   -0.317287    1.241671
    0.317287   -0.317287    0.317287    1.241671
   -0.317287   -0.317287   -0.317287    1.241671
    0.317287    0.317287    0.317287    1.241671
   -0.317287   -0.317287    0.317287    1.241671
   -0.317287    0.317287   -0.317287    1.241671
   -0.317287    0.317287    0.317287    1.241671
    0.317287   -0.317287   -0.317287    1.241671
    0.317287    0.317287   -0.317287    1.241671
    0.317287   -0.317287    0.317287    1.241671
   -0.317287   -0.317287   -0.317287    1.241671
    0.317287    0.317287    0.317287    1.241671
   -0.317287   -0.317287    0.317287    1.241671
   -0.317287    0.317287   -0.317287    1.241671
   -0.317287    0.317287    0.317287    1.241671
    0.317287   -0.317287   -0.317287    1.241671
    0.317287    0.317287   -0.317287    1.241671
    0.317287   -0.317287    0.317287    1.241671
   -0.317287   -0.317287   -0.317287    1.241671
   -0.317287   -0.317287    0.317287    1.241671
   -0.317287    0.317287   -0.317287    1.241671
    0.317287    0.317287    0.317287    1.241671
   -0.317287    0.317287    0.317287    1.241671
    0.317287   -0.317287   -0.317287    1.241671
    0.317287    0.317287   -0.317287    1.241671
    0.317287   -0.317287    0.317287    1.241671
    0.317287    0.317287   -0.317287    1.241671
    0.317287    0.317287    0.317287    1.241671
   -0.317287   -0.317287    0.317287    1.241671
   -0.317287    0.317287   -0.317287    1.241671
   -0.317287    0.317287    0.317287    1.241671
    0.317287   -0.317287   -0.317287    1.241671
   -0.317287   -0.317287   -0.317287    1.241671
    0.317287   -0.317287   -0.317287    1.241671
    0.317287   -0.317287    0.317287    1.241671
    0.317287    0.317287   -0.317287    1.241671
   -0.317287   -0.317287   -0.317287    1.241671
    0.317287    0.317287    0.317287    1.241671
   -0.317287   -0.317287    0.317287    1.241671
   -0.317287    0.317287   -0.317287    1.241671
   -0.317287    0.317287    0.317287    1.241671
    0.317287   -0.317287   -0.317287    1.241671
    0.317287   -0.317287    0.317287    1.241671
    0.317287    0.317287   -0.317287    1.241671
   -0.317287   -0.317287   -0.317287    1.241671
    0.317287    0.317287    0.317287    1.241671
   -0.317287   -0.317287    0.317287    1.241671
   -0.317287    0.317287   -0.317287    1.241671
   -0.317287    0.317287    0.317287    1.241671
    0.317287   -0.317287   -0.317287    1.241671
    0.317287   -0.317287    0.317287    1.241671
    0.317287    0.317287   -0.317287    1.241671
   -0.317287   -0.317287   -0.317287    1.241671
   -0.317287   -0.317287    0.317287    1.241671
   -0.317287    0.317287   -0.317287    1.241671
    0.317287    0.317287    0.317287    1.241671
   -0.317287    0.317287    0.317287    1.241671
    0.317287   -0.317287    0.317287    1.241671
    0.317287    0.317287   -0.317287    1.241671
    0.317287    0.317287    0.317287    1.241671
   -0.317287   -0.317287    0.317287    1.241671
   -0.317287    0.317287   -0.317287    1.241671
   -0.317287    0.317287    0.317287    1.241671
    0.317287   -0.317287   -0.317287    1.241671
   -0.317287   -0.317287   -0.317287    1.241671
    0.317287   -0.317287   -0.317287    1.241671
    0.317287   -0.317287    0.317287    1.241671
    0.317287    0.317287   -0.317287    1.241671
   -0.317287   -0.317287   -0.317287    1.241671
    0.317287    0.317287    0.317287    1.241671
   -0.317287   -0.317287    0.317287    1.241671
   -0.317287    0.317287   -0.317287    1.241671
   -0.317287    0.317287    0.317287    1.241671
    0.317287   -0.317287   -0.317287    1.241671
    0.317287   -0.317287    0.317287    1.241671
    0.317287    0.317287   -0.317287    1.241671
   -0.317287   -0.317287   -0.317287    1.241671
    0.317287    0.317287    0.317287    1.241671
   -0.317287   -0.317287    0.317287    1.241671
   -0.317287    0.317287   -0.317287    1.241671
   -0.317287    0.317287    0.317287    1.241671
    0.317287   -0.317287   -0.317287    1.241671
    0.317287   -0.317287    0.317287    1.241671
    0.317287    0.317287   -0.317287    1.241671
   -0.317287   -0.317287   -0.317287    1.241671
   -0.317287   -0.317287    0.317287    1.241671
   -0.317287    0.317287   -0.317287    1.241671
    0.317287    0.317287    0.317287    1.241671
   -0.317287    0.317287    0.317287    1.241671
    0.317287   -0.317287    0.317287    1.241671
    0.317287    0.317287   -0.317287    1.241671
    0.317287    0.317287    0.317287    1.241671
   -0.317287    0.317287   -0.317287    1.241671
   -0.317287   -0.317287    0.317287    1.241671
   -0.317287    0.317287    0.317287    1.241671
    0.317287   -0.317287   -0.317287    1.241671
   -0.317287   -0.317287   -0.317287    1.241671
    0.317287   -0.317287   -0.317287    1.241671
    0.317287   -0.317287    0.317287    1.241671
    0.317287    0.317287   -0.317287    1.241671
   -0.317287   -0.317287   -0.317287    1.241671
    0.317287    0.317287    0.317287    1.241671
   -0.317287    0.317287   -0.317287    1.241671
   -0.317287   -0.317287    0.317287    1.241671
   -0.317287    0.317287    0.317287    1.241671
    0.317287   -0.317287   -0.317287    1.241671
    0.317287   -0.317287    0.317287    1.241671
    0.317287    0.317287   -0.317287    1.241671
   -0.317287   -0.317287   -0.317287    1.241671
    0.317287    0.317287    0.317287    1.241671
   -0.317287    0.317287   -0.317287    1.241671
   -0.317287   -0.317287    0.317287    1.241671
   -0.317287    0.317287    0.317287    1.241671
    0.317287   -0.317287   -0.317287    1.241671
    0.317287   -0.317287    0.317287    1.241671
    0.317287    0.317287   -0.317287    1.241671
   -0.317287   -0.317287   -0.317287    1.241671
   -0.317287    0.317287   -0.317287    1.241671
   -0.317287   -0.317287    0.317287    1.241671
    0.317287    0.317287    0.317287    1.241671
   -0.317287    0.317287    0.317287    1.241671
    0.317287   -0.317287    0.317287    1.241671
    0.317287    0.317287    0.317287    1.241671
   -0.317287   -0.317287    0.317287    1.241671
   -0.317287    0.317287   -0.317287    1.241671
   -0.317287    0.317287    0.317287    1.241671
   -0.317287   -0.317287   -0.317287    1.241671
    0.317287    0.317287   -0.317287    1.241671
    0.317287   -0.317287   -0.317287    1.241671
    0.317287   -0.317287    0.317287    1.241671
   -0.317287   -0.317287   -0.317287    1.241671
    0.317287    0.317287    0.317287    1.241671
   -0.317287   -0.317287    0.317287    1.241671
   -0.317287    0.317287   -0.317287    1.241671
   -0.317287    0.317287    0.317287    1.241671
    0.317287   -0.317287   -0.317287    1.241671
    0.317287    0.317287   -0.317287    1.241671
    0.317287   -0.317287    0.317287    1.241671
   -0.317287   -0.317287   -0.317287    1.241671
    0.317287    0.317287    0.317287    1.241671
   -0.317287   -0.317287    0.317287    1.241671
   -0.317287    0.317287   -0.317287    1.241671
   -0.317287    0.317287    0.317287    1.241671
    0.317287   -0.317287   -0.317287    1.241671
    0.317287    0.317287   -0.317287    1.241671
    0.317287   -0.317287    0.317287    1.241671
   -0.317287   -0.317287   -0.317287    1.241671
   -0.317287   -0.317287    0.317287    1.241671
    0.317287    0.317287    0.317287    1.241671
   -0.317287    0.317287   -0.317287    1.241671
    0.317287   -0.317287   -0.317287    1.241671
    0.317287    0.317287   -0.317287    1.241671
   -0.317287    0.317287    0.317287    1.241671
    0.317287   -0.317287    0.317287    1.241671
    0.317287    0.317287   -0.317287    1.241671
    0.317287    0.317287    0.317287    1.241671
   -0.317287   -0.317287    0.317287    1.241671
   -0.317287    0.317287   -0.317287    1.241671
   -0.317287    0.317287    0.317287    1.241671
    0.317287   -0.317287   -0.317287    1.241671
   -0.317287   -0.317287   -0.317287    1.241671
    0.317287   -0.317287   -0.317287    1.241671
    0.317287   -0.317287    0.317287    1.241671
    0.317287    0.317287   -0.317287    1.241671
   -0.317287   -0.317287   -0.317287    1.241671
    0.317287    0.317287    0.317287    1.241671
   -0.317287   -0.317287    0.317287    1.241671
   -0.317287    0.317287   -0.317287    1.241671
   -0.317287    0.317287    0.317287    1.241671
    0.317287   -0.317287   -0.317287    1.241671
    0.317287   -0.317287    0.317287    1.241671
    0.317287    0.317287   -0.317287    1.241671
   -0.317287   -0.317287   -0.317287    1.241671
    0.317287    0.317287    0.317287    1.241671
   -0.317287   -0.317287    0.317287    1.241671
   -0.317287    0.317287   -0.317287    1.241671
   -0.317287    0.317287    0.317287    1.241671
    0.317287   -0.317287   -0.317287    1.241671
    0.317287   -0.317287    0.317287    1.241671
    0.317287    0.317287   -0.317287    1.241671
   -0.317287   -0.317287   -0.317287    1.241671
   -0.317287   -0.317287    0.317287    1.241671
    0.317287    0.317287    0.317287    1.241671
   -0.317287    0.317287   -0.317287    1.241671
   -0.317287    0.317287    0.317287    1.241671
    0.317287   -0.317287    0.317287    1.241671
    0.317287    0.317287   -0.317287    1.241671
    0.317287    0.317287    0.317287    1.241671
   -0.317287   -0.317287    0.317287    1.241671
   -0.317287    0.317287   -0.317287    1.241671
   -0.317287    0.317287    0.317287    1.241671
    0.317287   -0.317287   -0.317287    1.241671
   -0.317287   -0.317287   -0.317287    1.241671
    0.317287   -0.317287   -0.317287    1.241671
    0.317287   -0.317287    0.317287    1.241671
    0.317287    0.317287   -0.317287    1.241671
   -0.317287   -0.317287   -0.317287    1.241671
    0.317287    0.317287    0.317287    1.241671
   -0.317287   -0.317287    0.317287    1.241671
   -0.317287    0.317287   -0.317287    1.241671
   -0.317287    0.317287    0.317287    1.241671
    0.317287   -0.317287   -0.317287    1.241671
    0.317287   -0.317287    0.317287    1.241671
    0.317287    0.317287   -0.317287    1.241671
   -0.317287   -0.317287   -0.317287    1.241671
    0.317287    0.317287    0.317287    1.241671
   -0.317287   -0.317287    0.317287    1.241671
   -0.317287    0.317287   -0.317287    1.241671
   -0.317287    0.317287    0.317287    1.241671
    0.317287   -0.317287   -0.317287    1.241671
    0.317287   -0.317287    0.317287    1.241671
    0.317287    0.317287   -0.317287    1.241671
   -0.317287   -0.317287   -0.317287    1.241671
   -0.317287   -0.317287    0.317287    1.241671
    0.317287    0.317287    0.317287    1.241671
   -0.317287    0.317287   -0.317287    1.241671
   -0.317287    0.317287    0.317287    1.241671
    0.317287   -0.317287    0.317287    1.241671
    0.317287    0.317287   -0.317287    1.241671
    0.317287    0.317287    0.317287    1.241671
   -0.317287   -0.317287    0.317287    1.241671
   -0.317287    0.317287   -0.317287    1.241671
    0.317287   -0.317287   -0.317287    1.241671
   -0.317287   -0.317287   -0.317287    1.241671
   -0.317287    0.317287    0.317287    1.241671
    0.317287   -0.317287   -0.317287    1.241671
    0.317287   -0.317287    0.317287    1.241671
    0.317287    0.317287   -0.317287    1.241671
   -0.317287   -0.317287   -0.317287    1.241671
    0.317287    0.317287    0.317287    1.241671
   -0.317287   -0.317287    0.317287    1.241671
   -0.317287    0.317287   -0.317287    1.241671
   -0.317287    0.317287    0.317287    1.241671
    0.317287   -0.317287   -0.317287    1.241671
    0.317287   -0.317287    0.317287    1.241671
    0.317287    0.317287   -0.317287    1.241671
   -0.317287   -0.317287   -0.317287    1.241671
    0.317287    0.317287    0.317287    1.241671
   -0.317287   -0.317287    0.317287    1.241671
   -0.317287    0.317287   -0.317287    1.241671
   -0.317287    0.317287    0.317287    1.241671
    0.317287   -0.317287   -0.317287    1.241671
    0.317287   -0.317287    0.317287    1.241671
    0.317287    0.317287   -0.317287    1.241671
   -0.317287   -0.317287   -0.317287    1.241671
   -0.317287    0.317287    0.317287    1.241671
   -0.317287   -0.317287    0.317287    1.241671
    0.317287    0.317287    0.317287    1.241671
   -0.317287    0.317287   -0.317287    1.241671
