## written on 24Nov2020 at 15:34:32  with use_ws_distance=.true.
   -2   -2   -2    1    1
    4
    0    0    0
    0    0    4
    4    4    0
    4    4    4
   -2   -2   -2    1    2
    2
    4    4    0
    4    4    4
   -2   -2   -2    1    3
    2
    0    0    0
    0    0    4
   -2   -2   -2    1    4
    4
    0    0    0
    0    0    4
    4    4    0
    4    4    4
   -2   -2   -2    1    5
    1
    0    0    4
   -2   -2   -2    1    6
    1
    0    0    4
   -2   -2   -2    1    7
    1
    0    0    4
   -2   -2   -2    1    8
    1
    0    0    4
   -2   -2   -2    1    9
    2
    0    0    4
    4    4    4
   -2   -2   -2    1   10
    2
    4    4    0
    4    4    4
   -2   -2   -2    2    1
    2
    0    0    0
    0    0    4
   -2   -2   -2    2    2
    4
    0    0    0
    0    0    4
    4    4    0
    4    4    4
   -2   -2   -2    2    3
    2
    0    0    0
    0    0    4
   -2   -2   -2    2    4
    2
    0    0    0
    0    0    4
   -2   -2   -2    2    5
    1
    0    0    4
   -2   -2   -2    2    6
    1
    0    0    4
   -2   -2   -2    2    7
    1
    0    0    4
   -2   -2   -2    2    8
    1
    0    0    4
   -2   -2   -2    2    9
    1
    0    0    4
   -2   -2   -2    2   10
    2
    4    4    0
    4    4    4
   -2   -2   -2    3    1
    2
    4    4    0
    4    4    4
   -2   -2   -2    3    2
    2
    4    4    0
    4    4    4
   -2   -2   -2    3    3
    4
    0    0    0
    0    0    4
    4    4    0
    4    4    4
   -2   -2   -2    3    4
    2
    4    4    0
    4    4    4
   -2   -2   -2    3    5
    1
    0    0    4
   -2   -2   -2    3    6
    2
    0    0    4
    4    4    4
   -2   -2   -2    3    7
    1
    0    0    4
   -2   -2   -2    3    8
    1
    0    0    4
   -2   -2   -2    3    9
    1
    4    4    4
   -2   -2   -2    3   10
    2
    4    4    0
    4    4    4
   -2   -2   -2    4    1
    4
    0    0    0
    0    0    4
    4    4    0
    4    4    4
   -2   -2   -2    4    2
    2
    4    4    0
    4    4    4
   -2   -2   -2    4    3
    2
    0    0    0
    0    0    4
   -2   -2   -2    4    4
    4
    0    0    0
    0    0    4
    4    4    0
    4    4    4
   -2   -2   -2    4    5
    1
    0    0    4
   -2   -2   -2    4    6
    1
    0    0    4
   -2   -2   -2    4    7
    1
    0    0    4
   -2   -2   -2    4    8
    1
    0    0    4
   -2   -2   -2    4    9
    2
    0    0    4
    4    4    4
   -2   -2   -2    4   10
    2
    4    4    0
    4    4    4
   -2   -2   -2    5    1
    1
    4    4    0
   -2   -2   -2    5    2
    1
    4    4    0
   -2   -2   -2    5    3
    1
    4    4    0
   -2   -2   -2    5    4
    1
    4    4    0
   -2   -2   -2    5    5
    4
    0    0    0
    0    0    4
    4    4    0
    4    4    4
   -2   -2   -2    5    6
    2
    4    4    0
    4    4    4
   -2   -2   -2    5    7
    2
    0    0    0
    0    0    4
   -2   -2   -2    5    8
    4
    0    0    0
    0    0    4
    4    4    0
    4    4    4
   -2   -2   -2    5    9
    2
    4    4    0
    4    4    4
   -2   -2   -2    5   10
    1
    4    4    0
   -2   -2   -2    6    1
    1
    4    4    0
   -2   -2   -2    6    2
    1
    4    4    0
   -2   -2   -2    6    3
    2
    0    0    0
    4    4    0
   -2   -2   -2    6    4
    1
    4    4    0
   -2   -2   -2    6    5
    2
    0    0    0
    0    0    4
   -2   -2   -2    6    6
    4
    0    0    0
    0    0    4
    4    4    0
    4    4    4
   -2   -2   -2    6    7
    2
    0    0    0
    0    0    4
   -2   -2   -2    6    8
    2
    0    0    0
    0    0    4
   -2   -2   -2    6    9
    2
    4    4    0
    4    4    4
   -2   -2   -2    6   10
    1
    4    4    0
   -2   -2   -2    7    1
    1
    4    4    0
   -2   -2   -2    7    2
    1
    4    4    0
   -2   -2   -2    7    3
    1
    4    4    0
   -2   -2   -2    7    4
    1
    4    4    0
   -2   -2   -2    7    5
    2
    4    4    0
    4    4    4
   -2   -2   -2    7    6
    2
    4    4    0
    4    4    4
   -2   -2   -2    7    7
    4
    0    0    0
    0    0    4
    4    4    0
    4    4    4
   -2   -2   -2    7    8
    2
    4    4    0
    4    4    4
   -2   -2   -2    7    9
    2
    4    4    0
    4    4    4
   -2   -2   -2    7   10
    1
    4    4    0
   -2   -2   -2    8    1
    1
    4    4    0
   -2   -2   -2    8    2
    1
    4    4    0
   -2   -2   -2    8    3
    1
    4    4    0
   -2   -2   -2    8    4
    1
    4    4    0
   -2   -2   -2    8    5
    4
    0    0    0
    0    0    4
    4    4    0
    4    4    4
   -2   -2   -2    8    6
    2
    4    4    0
    4    4    4
   -2   -2   -2    8    7
    2
    0    0    0
    0    0    4
   -2   -2   -2    8    8
    4
    0    0    0
    0    0    4
    4    4    0
    4    4    4
   -2   -2   -2    8    9
    2
    4    4    0
    4    4    4
   -2   -2   -2    8   10
    1
    4    4    0
   -2   -2   -2    9    1
    2
    0    0    0
    4    4    0
   -2   -2   -2    9    2
    1
    4    4    0
   -2   -2   -2    9    3
    1
    0    0    0
   -2   -2   -2    9    4
    2
    0    0    0
    4    4    0
   -2   -2   -2    9    5
    2
    0    0    0
    0    0    4
   -2   -2   -2    9    6
    2
    0    0    0
    0    0    4
   -2   -2   -2    9    7
    2
    0    0    0
    0    0    4
   -2   -2   -2    9    8
    2
    0    0    0
    0    0    4
   -2   -2   -2    9    9
    4
    0    0    0
    0    0    4
    4    4    0
    4    4    4
   -2   -2   -2    9   10
    1
    4    4    0
   -2   -2   -2   10    1
    2
    0    0    0
    0    0    4
   -2   -2   -2   10    2
    2
    0    0    0
    0    0    4
   -2   -2   -2   10    3
    2
    0    0    0
    0    0    4
   -2   -2   -2   10    4
    2
    0    0    0
    0    0    4
   -2   -2   -2   10    5
    1
    0    0    4
   -2   -2   -2   10    6
    1
    0    0    4
   -2   -2   -2   10    7
    1
    0    0    4
   -2   -2   -2   10    8
    1
    0    0    4
   -2   -2   -2   10    9
    1
    0    0    4
   -2   -2   -2   10   10
    4
    0    0    0
    0    0    4
    4    4    0
    4    4    4
   -2   -2   -1    1    1
    2
    0    0    0
    4    4    0
   -2   -2   -1    1    2
    1
    4    4    0
   -2   -2   -1    1    3
    1
    0    0    0
   -2   -2   -1    1    4
    2
    0    0    0
    4    4    0
   -2   -2   -1    1    5
    1
    0    0    0
   -2   -2   -1    1    6
    1
    0    0    0
   -2   -2   -1    1    7
    1
    0    0    0
   -2   -2   -1    1    8
    1
    0    0    0
   -2   -2   -1    1    9
    2
    0    0    0
    4    4    0
   -2   -2   -1    1   10
    1
    4    4    0
   -2   -2   -1    2    1
    1
    0    0    0
   -2   -2   -1    2    2
    2
    0    0    0
    4    4    0
   -2   -2   -1    2    3
    1
    0    0    0
   -2   -2   -1    2    4
    1
    0    0    0
   -2   -2   -1    2    5
    1
    0    0    0
   -2   -2   -1    2    6
    1
    0    0    0
   -2   -2   -1    2    7
    1
    0    0    0
   -2   -2   -1    2    8
    1
    0    0    0
   -2   -2   -1    2    9
    1
    0    0    0
   -2   -2   -1    2   10
    1
    4    4    0
   -2   -2   -1    3    1
    1
    4    4    0
   -2   -2   -1    3    2
    1
    4    4    0
   -2   -2   -1    3    3
    2
    0    0    0
    4    4    0
   -2   -2   -1    3    4
    1
    4    4    0
   -2   -2   -1    3    5
    1
    0    0    0
   -2   -2   -1    3    6
    2
    0    0    0
    4    4    0
   -2   -2   -1    3    7
    1
    0    0    0
   -2   -2   -1    3    8
    1
    0    0    0
   -2   -2   -1    3    9
    1
    4    4    0
   -2   -2   -1    3   10
    1
    4    4    0
   -2   -2   -1    4    1
    2
    0    0    0
    4    4    0
   -2   -2   -1    4    2
    1
    4    4    0
   -2   -2   -1    4    3
    1
    0    0    0
   -2   -2   -1    4    4
    2
    0    0    0
    4    4    0
   -2   -2   -1    4    5
    1
    0    0    0
   -2   -2   -1    4    6
    1
    0    0    0
   -2   -2   -1    4    7
    1
    0    0    0
   -2   -2   -1    4    8
    1
    0    0    0
   -2   -2   -1    4    9
    2
    0    0    0
    4    4    0
   -2   -2   -1    4   10
    1
    4    4    0
   -2   -2   -1    5    1
    1
    4    4    0
   -2   -2   -1    5    2
    1
    4    4    0
   -2   -2   -1    5    3
    1
    4    4    0
   -2   -2   -1    5    4
    1
    4    4    0
   -2   -2   -1    5    5
    2
    0    0    0
    4    4    0
   -2   -2   -1    5    6
    1
    4    4    0
   -2   -2   -1    5    7
    1
    0    0    0
   -2   -2   -1    5    8
    2
    0    0    0
    4    4    0
   -2   -2   -1    5    9
    1
    4    4    0
   -2   -2   -1    5   10
    1
    4    4    0
   -2   -2   -1    6    1
    1
    4    4    0
   -2   -2   -1    6    2
    1
    4    4    0
   -2   -2   -1    6    3
    2
    0    0    0
    4    4    0
   -2   -2   -1    6    4
    1
    4    4    0
   -2   -2   -1    6    5
    1
    0    0    0
   -2   -2   -1    6    6
    2
    0    0    0
    4    4    0
   -2   -2   -1    6    7
    1
    0    0    0
   -2   -2   -1    6    8
    1
    0    0    0
   -2   -2   -1    6    9
    1
    4    4    0
   -2   -2   -1    6   10
    1
    4    4    0
   -2   -2   -1    7    1
    1
    4    4    0
   -2   -2   -1    7    2
    1
    4    4    0
   -2   -2   -1    7    3
    1
    4    4    0
   -2   -2   -1    7    4
    1
    4    4    0
   -2   -2   -1    7    5
    1
    4    4    0
   -2   -2   -1    7    6
    1
    4    4    0
   -2   -2   -1    7    7
    2
    0    0    0
    4    4    0
   -2   -2   -1    7    8
    1
    4    4    0
   -2   -2   -1    7    9
    1
    4    4    0
   -2   -2   -1    7   10
    1
    4    4    0
   -2   -2   -1    8    1
    1
    4    4    0
   -2   -2   -1    8    2
    1
    4    4    0
   -2   -2   -1    8    3
    1
    4    4    0
   -2   -2   -1    8    4
    1
    4    4    0
   -2   -2   -1    8    5
    2
    0    0    0
    4    4    0
   -2   -2   -1    8    6
    1
    4    4    0
   -2   -2   -1    8    7
    1
    0    0    0
   -2   -2   -1    8    8
    2
    0    0    0
    4    4    0
   -2   -2   -1    8    9
    1
    4    4    0
   -2   -2   -1    8   10
    1
    4    4    0
   -2   -2   -1    9    1
    2
    0    0    0
    4    4    0
   -2   -2   -1    9    2
    1
    4    4    0
   -2   -2   -1    9    3
    1
    0    0    0
   -2   -2   -1    9    4
    2
    0    0    0
    4    4    0
   -2   -2   -1    9    5
    1
    0    0    0
   -2   -2   -1    9    6
    1
    0    0    0
   -2   -2   -1    9    7
    1
    0    0    0
   -2   -2   -1    9    8
    1
    0    0    0
   -2   -2   -1    9    9
    2
    0    0    0
    4    4    0
   -2   -2   -1    9   10
    1
    4    4    0
   -2   -2   -1   10    1
    1
    0    0    0
   -2   -2   -1   10    2
    1
    0    0    0
   -2   -2   -1   10    3
    1
    0    0    0
   -2   -2   -1   10    4
    1
    0    0    0
   -2   -2   -1   10    5
    1
    0    0    0
   -2   -2   -1   10    6
    1
    0    0    0
   -2   -2   -1   10    7
    1
    0    0    0
   -2   -2   -1   10    8
    1
    0    0    0
   -2   -2   -1   10    9
    1
    0    0    0
   -2   -2   -1   10   10
    2
    0    0    0
    4    4    0
   -2   -2    0    1    1
    2
    0    0    0
    4    4    0
   -2   -2    0    1    2
    1
    4    4    0
   -2   -2    0    1    3
    1
    0    0    0
   -2   -2    0    1    4
    2
    0    0    0
    4    4    0
   -2   -2    0    1    5
    1
    0    0    0
   -2   -2    0    1    6
    1
    0    0    0
   -2   -2    0    1    7
    1
    0    0    0
   -2   -2    0    1    8
    1
    0    0    0
   -2   -2    0    1    9
    2
    0    0    0
    4    4    0
   -2   -2    0    1   10
    1
    4    4    0
   -2   -2    0    2    1
    1
    0    0    0
   -2   -2    0    2    2
    2
    0    0    0
    4    4    0
   -2   -2    0    2    3
    1
    0    0    0
   -2   -2    0    2    4
    1
    0    0    0
   -2   -2    0    2    5
    1
    0    0    0
   -2   -2    0    2    6
    1
    0    0    0
   -2   -2    0    2    7
    1
    0    0    0
   -2   -2    0    2    8
    1
    0    0    0
   -2   -2    0    2    9
    1
    0    0    0
   -2   -2    0    2   10
    1
    4    4    0
   -2   -2    0    3    1
    1
    4    4    0
   -2   -2    0    3    2
    1
    4    4    0
   -2   -2    0    3    3
    2
    0    0    0
    4    4    0
   -2   -2    0    3    4
    1
    4    4    0
   -2   -2    0    3    5
    1
    0    0    0
   -2   -2    0    3    6
    2
    0    0    0
    4    4    0
   -2   -2    0    3    7
    1
    0    0    0
   -2   -2    0    3    8
    1
    0    0    0
   -2   -2    0    3    9
    1
    4    4    0
   -2   -2    0    3   10
    1
    4    4    0
   -2   -2    0    4    1
    2
    0    0    0
    4    4    0
   -2   -2    0    4    2
    1
    4    4    0
   -2   -2    0    4    3
    1
    0    0    0
   -2   -2    0    4    4
    2
    0    0    0
    4    4    0
   -2   -2    0    4    5
    1
    0    0    0
   -2   -2    0    4    6
    1
    0    0    0
   -2   -2    0    4    7
    1
    0    0    0
   -2   -2    0    4    8
    1
    0    0    0
   -2   -2    0    4    9
    2
    0    0    0
    4    4    0
   -2   -2    0    4   10
    1
    4    4    0
   -2   -2    0    5    1
    1
    4    4    0
   -2   -2    0    5    2
    1
    4    4    0
   -2   -2    0    5    3
    1
    4    4    0
   -2   -2    0    5    4
    1
    4    4    0
   -2   -2    0    5    5
    2
    0    0    0
    4    4    0
   -2   -2    0    5    6
    1
    4    4    0
   -2   -2    0    5    7
    1
    0    0    0
   -2   -2    0    5    8
    2
    0    0    0
    4    4    0
   -2   -2    0    5    9
    1
    4    4    0
   -2   -2    0    5   10
    1
    4    4    0
   -2   -2    0    6    1
    1
    4    4    0
   -2   -2    0    6    2
    1
    4    4    0
   -2   -2    0    6    3
    2
    0    0    0
    4    4    0
   -2   -2    0    6    4
    1
    4    4    0
   -2   -2    0    6    5
    1
    0    0    0
   -2   -2    0    6    6
    2
    0    0    0
    4    4    0
   -2   -2    0    6    7
    1
    0    0    0
   -2   -2    0    6    8
    1
    0    0    0
   -2   -2    0    6    9
    1
    4    4    0
   -2   -2    0    6   10
    1
    4    4    0
   -2   -2    0    7    1
    1
    4    4    0
   -2   -2    0    7    2
    1
    4    4    0
   -2   -2    0    7    3
    1
    4    4    0
   -2   -2    0    7    4
    1
    4    4    0
   -2   -2    0    7    5
    1
    4    4    0
   -2   -2    0    7    6
    1
    4    4    0
   -2   -2    0    7    7
    2
    0    0    0
    4    4    0
   -2   -2    0    7    8
    1
    4    4    0
   -2   -2    0    7    9
    1
    4    4    0
   -2   -2    0    7   10
    1
    4    4    0
   -2   -2    0    8    1
    1
    4    4    0
   -2   -2    0    8    2
    1
    4    4    0
   -2   -2    0    8    3
    1
    4    4    0
   -2   -2    0    8    4
    1
    4    4    0
   -2   -2    0    8    5
    2
    0    0    0
    4    4    0
   -2   -2    0    8    6
    1
    4    4    0
   -2   -2    0    8    7
    1
    0    0    0
   -2   -2    0    8    8
    2
    0    0    0
    4    4    0
   -2   -2    0    8    9
    1
    4    4    0
   -2   -2    0    8   10
    1
    4    4    0
   -2   -2    0    9    1
    2
    0    0    0
    4    4    0
   -2   -2    0    9    2
    1
    4    4    0
   -2   -2    0    9    3
    1
    0    0    0
   -2   -2    0    9    4
    2
    0    0    0
    4    4    0
   -2   -2    0    9    5
    1
    0    0    0
   -2   -2    0    9    6
    1
    0    0    0
   -2   -2    0    9    7
    1
    0    0    0
   -2   -2    0    9    8
    1
    0    0    0
   -2   -2    0    9    9
    2
    0    0    0
    4    4    0
   -2   -2    0    9   10
    1
    4    4    0
   -2   -2    0   10    1
    1
    0    0    0
   -2   -2    0   10    2
    1
    0    0    0
   -2   -2    0   10    3
    1
    0    0    0
   -2   -2    0   10    4
    1
    0    0    0
   -2   -2    0   10    5
    1
    0    0    0
   -2   -2    0   10    6
    1
    0    0    0
   -2   -2    0   10    7
    1
    0    0    0
   -2   -2    0   10    8
    1
    0    0    0
   -2   -2    0   10    9
    1
    0    0    0
   -2   -2    0   10   10
    2
    0    0    0
    4    4    0
   -2   -2    1    1    1
    2
    0    0    0
    4    4    0
   -2   -2    1    1    2
    1
    4    4    0
   -2   -2    1    1    3
    1
    0    0    0
   -2   -2    1    1    4
    2
    0    0    0
    4    4    0
   -2   -2    1    1    5
    1
    0    0    0
   -2   -2    1    1    6
    1
    0    0    0
   -2   -2    1    1    7
    1
    0    0    0
   -2   -2    1    1    8
    1
    0    0    0
   -2   -2    1    1    9
    2
    0    0    0
    4    4    0
   -2   -2    1    1   10
    1
    4    4    0
   -2   -2    1    2    1
    1
    0    0    0
   -2   -2    1    2    2
    2
    0    0    0
    4    4    0
   -2   -2    1    2    3
    1
    0    0    0
   -2   -2    1    2    4
    1
    0    0    0
   -2   -2    1    2    5
    1
    0    0    0
   -2   -2    1    2    6
    1
    0    0    0
   -2   -2    1    2    7
    1
    0    0    0
   -2   -2    1    2    8
    1
    0    0    0
   -2   -2    1    2    9
    1
    0    0    0
   -2   -2    1    2   10
    1
    4    4    0
   -2   -2    1    3    1
    1
    4    4    0
   -2   -2    1    3    2
    1
    4    4    0
   -2   -2    1    3    3
    2
    0    0    0
    4    4    0
   -2   -2    1    3    4
    1
    4    4    0
   -2   -2    1    3    5
    1
    0    0    0
   -2   -2    1    3    6
    2
    0    0    0
    4    4    0
   -2   -2    1    3    7
    1
    0    0    0
   -2   -2    1    3    8
    1
    0    0    0
   -2   -2    1    3    9
    1
    4    4    0
   -2   -2    1    3   10
    1
    4    4    0
   -2   -2    1    4    1
    2
    0    0    0
    4    4    0
   -2   -2    1    4    2
    1
    4    4    0
   -2   -2    1    4    3
    1
    0    0    0
   -2   -2    1    4    4
    2
    0    0    0
    4    4    0
   -2   -2    1    4    5
    1
    0    0    0
   -2   -2    1    4    6
    1
    0    0    0
   -2   -2    1    4    7
    1
    0    0    0
   -2   -2    1    4    8
    1
    0    0    0
   -2   -2    1    4    9
    2
    0    0    0
    4    4    0
   -2   -2    1    4   10
    1
    4    4    0
   -2   -2    1    5    1
    1
    4    4    0
   -2   -2    1    5    2
    1
    4    4    0
   -2   -2    1    5    3
    1
    4    4    0
   -2   -2    1    5    4
    1
    4    4    0
   -2   -2    1    5    5
    2
    0    0    0
    4    4    0
   -2   -2    1    5    6
    1
    4    4    0
   -2   -2    1    5    7
    1
    0    0    0
   -2   -2    1    5    8
    2
    0    0    0
    4    4    0
   -2   -2    1    5    9
    1
    4    4    0
   -2   -2    1    5   10
    1
    4    4    0
   -2   -2    1    6    1
    1
    4    4    0
   -2   -2    1    6    2
    1
    4    4    0
   -2   -2    1    6    3
    2
    0    0    0
    4    4    0
   -2   -2    1    6    4
    1
    4    4    0
   -2   -2    1    6    5
    1
    0    0    0
   -2   -2    1    6    6
    2
    0    0    0
    4    4    0
   -2   -2    1    6    7
    1
    0    0    0
   -2   -2    1    6    8
    1
    0    0    0
   -2   -2    1    6    9
    1
    4    4    0
   -2   -2    1    6   10
    1
    4    4    0
   -2   -2    1    7    1
    1
    4    4    0
   -2   -2    1    7    2
    1
    4    4    0
   -2   -2    1    7    3
    1
    4    4    0
   -2   -2    1    7    4
    1
    4    4    0
   -2   -2    1    7    5
    1
    4    4    0
   -2   -2    1    7    6
    1
    4    4    0
   -2   -2    1    7    7
    2
    0    0    0
    4    4    0
   -2   -2    1    7    8
    1
    4    4    0
   -2   -2    1    7    9
    1
    4    4    0
   -2   -2    1    7   10
    1
    4    4    0
   -2   -2    1    8    1
    1
    4    4    0
   -2   -2    1    8    2
    1
    4    4    0
   -2   -2    1    8    3
    1
    4    4    0
   -2   -2    1    8    4
    1
    4    4    0
   -2   -2    1    8    5
    2
    0    0    0
    4    4    0
   -2   -2    1    8    6
    1
    4    4    0
   -2   -2    1    8    7
    1
    0    0    0
   -2   -2    1    8    8
    2
    0    0    0
    4    4    0
   -2   -2    1    8    9
    1
    4    4    0
   -2   -2    1    8   10
    1
    4    4    0
   -2   -2    1    9    1
    2
    0    0    0
    4    4    0
   -2   -2    1    9    2
    1
    4    4    0
   -2   -2    1    9    3
    1
    0    0    0
   -2   -2    1    9    4
    2
    0    0    0
    4    4    0
   -2   -2    1    9    5
    1
    0    0    0
   -2   -2    1    9    6
    1
    0    0    0
   -2   -2    1    9    7
    1
    0    0    0
   -2   -2    1    9    8
    1
    0    0    0
   -2   -2    1    9    9
    2
    0    0    0
    4    4    0
   -2   -2    1    9   10
    1
    4    4    0
   -2   -2    1   10    1
    1
    0    0    0
   -2   -2    1   10    2
    1
    0    0    0
   -2   -2    1   10    3
    1
    0    0    0
   -2   -2    1   10    4
    1
    0    0    0
   -2   -2    1   10    5
    1
    0    0    0
   -2   -2    1   10    6
    1
    0    0    0
   -2   -2    1   10    7
    1
    0    0    0
   -2   -2    1   10    8
    1
    0    0    0
   -2   -2    1   10    9
    1
    0    0    0
   -2   -2    1   10   10
    2
    0    0    0
    4    4    0
   -2   -2    2    1    1
    4
    0    0   -4
    0    0    0
    4    4   -4
    4    4    0
   -2   -2    2    1    2
    2
    4    4   -4
    4    4    0
   -2   -2    2    1    3
    2
    0    0   -4
    0    0    0
   -2   -2    2    1    4
    4
    0    0   -4
    0    0    0
    4    4   -4
    4    4    0
   -2   -2    2    1    5
    1
    0    0    0
   -2   -2    2    1    6
    1
    0    0    0
   -2   -2    2    1    7
    1
    0    0    0
   -2   -2    2    1    8
    1
    0    0    0
   -2   -2    2    1    9
    2
    0    0    0
    4    4    0
   -2   -2    2    1   10
    2
    4    4   -4
    4    4    0
   -2   -2    2    2    1
    2
    0    0   -4
    0    0    0
   -2   -2    2    2    2
    4
    0    0   -4
    0    0    0
    4    4   -4
    4    4    0
   -2   -2    2    2    3
    2
    0    0   -4
    0    0    0
   -2   -2    2    2    4
    2
    0    0   -4
    0    0    0
   -2   -2    2    2    5
    1
    0    0    0
   -2   -2    2    2    6
    1
    0    0    0
   -2   -2    2    2    7
    1
    0    0    0
   -2   -2    2    2    8
    1
    0    0    0
   -2   -2    2    2    9
    1
    0    0    0
   -2   -2    2    2   10
    2
    4    4   -4
    4    4    0
   -2   -2    2    3    1
    2
    4    4   -4
    4    4    0
   -2   -2    2    3    2
    2
    4    4   -4
    4    4    0
   -2   -2    2    3    3
    4
    0    0   -4
    0    0    0
    4    4   -4
    4    4    0
   -2   -2    2    3    4
    2
    4    4   -4
    4    4    0
   -2   -2    2    3    5
    1
    0    0    0
   -2   -2    2    3    6
    2
    0    0    0
    4    4    0
   -2   -2    2    3    7
    1
    0    0    0
   -2   -2    2    3    8
    1
    0    0    0
   -2   -2    2    3    9
    1
    4    4    0
   -2   -2    2    3   10
    2
    4    4   -4
    4    4    0
   -2   -2    2    4    1
    4
    0    0   -4
    0    0    0
    4    4   -4
    4    4    0
   -2   -2    2    4    2
    2
    4    4   -4
    4    4    0
   -2   -2    2    4    3
    2
    0    0   -4
    0    0    0
   -2   -2    2    4    4
    4
    0    0   -4
    0    0    0
    4    4   -4
    4    4    0
   -2   -2    2    4    5
    1
    0    0    0
   -2   -2    2    4    6
    1
    0    0    0
   -2   -2    2    4    7
    1
    0    0    0
   -2   -2    2    4    8
    1
    0    0    0
   -2   -2    2    4    9
    2
    0    0    0
    4    4    0
   -2   -2    2    4   10
    2
    4    4   -4
    4    4    0
   -2   -2    2    5    1
    1
    4    4   -4
   -2   -2    2    5    2
    1
    4    4   -4
   -2   -2    2    5    3
    1
    4    4   -4
   -2   -2    2    5    4
    1
    4    4   -4
   -2   -2    2    5    5
    4
    0    0   -4
    0    0    0
    4    4   -4
    4    4    0
   -2   -2    2    5    6
    2
    4    4   -4
    4    4    0
   -2   -2    2    5    7
    2
    0    0   -4
    0    0    0
   -2   -2    2    5    8
    4
    0    0   -4
    0    0    0
    4    4   -4
    4    4    0
   -2   -2    2    5    9
    2
    4    4   -4
    4    4    0
   -2   -2    2    5   10
    1
    4    4   -4
   -2   -2    2    6    1
    1
    4    4   -4
   -2   -2    2    6    2
    1
    4    4   -4
   -2   -2    2    6    3
    2
    0    0   -4
    4    4   -4
   -2   -2    2    6    4
    1
    4    4   -4
   -2   -2    2    6    5
    2
    0    0   -4
    0    0    0
   -2   -2    2    6    6
    4
    0    0   -4
    0    0    0
    4    4   -4
    4    4    0
   -2   -2    2    6    7
    2
    0    0   -4
    0    0    0
   -2   -2    2    6    8
    2
    0    0   -4
    0    0    0
   -2   -2    2    6    9
    2
    4    4   -4
    4    4    0
   -2   -2    2    6   10
    1
    4    4   -4
   -2   -2    2    7    1
    1
    4    4   -4
   -2   -2    2    7    2
    1
    4    4   -4
   -2   -2    2    7    3
    1
    4    4   -4
   -2   -2    2    7    4
    1
    4    4   -4
   -2   -2    2    7    5
    2
    4    4   -4
    4    4    0
   -2   -2    2    7    6
    2
    4    4   -4
    4    4    0
   -2   -2    2    7    7
    4
    0    0   -4
    0    0    0
    4    4   -4
    4    4    0
   -2   -2    2    7    8
    2
    4    4   -4
    4    4    0
   -2   -2    2    7    9
    2
    4    4   -4
    4    4    0
   -2   -2    2    7   10
    1
    4    4   -4
   -2   -2    2    8    1
    1
    4    4   -4
   -2   -2    2    8    2
    1
    4    4   -4
   -2   -2    2    8    3
    1
    4    4   -4
   -2   -2    2    8    4
    1
    4    4   -4
   -2   -2    2    8    5
    4
    0    0   -4
    0    0    0
    4    4   -4
    4    4    0
   -2   -2    2    8    6
    2
    4    4   -4
    4    4    0
   -2   -2    2    8    7
    2
    0    0   -4
    0    0    0
   -2   -2    2    8    8
    4
    0    0   -4
    0    0    0
    4    4   -4
    4    4    0
   -2   -2    2    8    9
    2
    4    4   -4
    4    4    0
   -2   -2    2    8   10
    1
    4    4   -4
   -2   -2    2    9    1
    2
    0    0   -4
    4    4   -4
   -2   -2    2    9    2
    1
    4    4   -4
   -2   -2    2    9    3
    1
    0    0   -4
   -2   -2    2    9    4
    2
    0    0   -4
    4    4   -4
   -2   -2    2    9    5
    2
    0    0   -4
    0    0    0
   -2   -2    2    9    6
    2
    0    0   -4
    0    0    0
   -2   -2    2    9    7
    2
    0    0   -4
    0    0    0
   -2   -2    2    9    8
    2
    0    0   -4
    0    0    0
   -2   -2    2    9    9
    4
    0    0   -4
    0    0    0
    4    4   -4
    4    4    0
   -2   -2    2    9   10
    1
    4    4   -4
   -2   -2    2   10    1
    2
    0    0   -4
    0    0    0
   -2   -2    2   10    2
    2
    0    0   -4
    0    0    0
   -2   -2    2   10    3
    2
    0    0   -4
    0    0    0
   -2   -2    2   10    4
    2
    0    0   -4
    0    0    0
   -2   -2    2   10    5
    1
    0    0    0
   -2   -2    2   10    6
    1
    0    0    0
   -2   -2    2   10    7
    1
    0    0    0
   -2   -2    2   10    8
    1
    0    0    0
   -2   -2    2   10    9
    1
    0    0    0
   -2   -2    2   10   10
    4
    0    0   -4
    0    0    0
    4    4   -4
    4    4    0
   -2   -1   -2    1    1
    2
    0    0    0
    0    0    4
   -2   -1   -2    1    2
    2
    0    0    0
    0    0    4
   -2   -1   -2    1    3
    2
    0    0    0
    0    0    4
   -2   -1   -2    1    4
    2
    0    0    0
    0    0    4
   -2   -1   -2    1    5
    1
    0    0    4
   -2   -1   -2    1    6
    1
    0    0    4
   -2   -1   -2    1    7
    1
    0    0    4
   -2   -1   -2    1    8
    1
    0    0    4
   -2   -1   -2    1    9
    1
    0    0    4
   -2   -1   -2    1   10
    4
    0    0    0
    0    0    4
    4    4    0
    4    4    4
   -2   -1   -2    2    1
    2
    0    0    0
    0    0    4
   -2   -1   -2    2    2
    2
    0    0    0
    0    0    4
   -2   -1   -2    2    3
    2
    0    0    0
    0    0    4
   -2   -1   -2    2    4
    2
    0    0    0
    0    0    4
   -2   -1   -2    2    5
    1
    0    0    4
   -2   -1   -2    2    6
    1
    0    0    4
   -2   -1   -2    2    7
    1
    0    0    4
   -2   -1   -2    2    8
    1
    0    0    4
   -2   -1   -2    2    9
    1
    0    0    4
   -2   -1   -2    2   10
    2
    0    0    0
    0    0    4
   -2   -1   -2    3    1
    2
    0    0    0
    0    0    4
   -2   -1   -2    3    2
    2
    0    0    0
    0    0    4
   -2   -1   -2    3    3
    2
    0    0    0
    0    0    4
   -2   -1   -2    3    4
    2
    0    0    0
    0    0    4
   -2   -1   -2    3    5
    2
    0    0    4
    4    0    4
   -2   -1   -2    3    6
    1
    0    0    4
   -2   -1   -2    3    7
    1
    0    0    4
   -2   -1   -2    3    8
    1
    0    0    4
   -2   -1   -2    3    9
    1
    0    0    4
   -2   -1   -2    3   10
    2
    4    4    0
    4    4    4
   -2   -1   -2    4    1
    2
    0    0    0
    0    0    4
   -2   -1   -2    4    2
    2
    0    0    0
    0    0    4
   -2   -1   -2    4    3
    2
    0    0    0
    0    0    4
   -2   -1   -2    4    4
    2
    0    0    0
    0    0    4
   -2   -1   -2    4    5
    1
    0    0    4
   -2   -1   -2    4    6
    1
    0    0    4
   -2   -1   -2    4    7
    1
    0    0    4
   -2   -1   -2    4    8
    1
    0    0    4
   -2   -1   -2    4    9
    1
    0    0    4
   -2   -1   -2    4   10
    4
    0    0    0
    0    0    4
    4    4    0
    4    4    4
   -2   -1   -2    5    1
    2
    0    0    0
    4    4    0
   -2   -1   -2    5    2
    1
    4    4    0
   -2   -1   -2    5    3
    1
    0    0    0
   -2   -1   -2    5    4
    2
    0    0    0
    4    4    0
   -2   -1   -2    5    5
    2
    0    0    0
    0    0    4
   -2   -1   -2    5    6
    2
    0    0    0
    0    0    4
   -2   -1   -2    5    7
    2
    0    0    0
    0    0    4
   -2   -1   -2    5    8
    2
    0    0    0
    0    0    4
   -2   -1   -2    5    9
    4
    0    0    0
    0    0    4
    4    4    0
    4    4    4
   -2   -1   -2    5   10
    1
    4    4    0
   -2   -1   -2    6    1
    1
    0    0    0
   -2   -1   -2    6    2
    1
    0    0    0
   -2   -1   -2    6    3
    1
    0    0    0
   -2   -1   -2    6    4
    1
    0    0    0
   -2   -1   -2    6    5
    2
    0    0    0
    0    0    4
   -2   -1   -2    6    6
    2
    0    0    0
    0    0    4
   -2   -1   -2    6    7
    2
    0    0    0
    0    0    4
   -2   -1   -2    6    8
    2
    0    0    0
    0    0    4
   -2   -1   -2    6    9
    2
    0    0    0
    0    0    4
   -2   -1   -2    6   10
    1
    4    4    0
   -2   -1   -2    7    1
    1
    4    4    0
   -2   -1   -2    7    2
    1
    4    4    0
   -2   -1   -2    7    3
    1
    4    4    0
   -2   -1   -2    7    4
    1
    4    4    0
   -2   -1   -2    7    5
    2
    4    0    0
    4    0    4
   -2   -1   -2    7    6
    2
    4    4    0
    4    4    4
   -2   -1   -2    7    7
    2
    0    0    0
    0    0    4
   -2   -1   -2    7    8
    2
    0    0    0
    0    0    4
   -2   -1   -2    7    9
    2
    4    4    0
    4    4    4
   -2   -1   -2    7   10
    1
    4    4    0
   -2   -1   -2    8    1
    2
    0    0    0
    4    4    0
   -2   -1   -2    8    2
    1
    4    4    0
   -2   -1   -2    8    3
    1
    0    0    0
   -2   -1   -2    8    4
    2
    0    0    0
    4    4    0
   -2   -1   -2    8    5
    2
    0    0    0
    0    0    4
   -2   -1   -2    8    6
    2
    0    0    0
    0    0    4
   -2   -1   -2    8    7
    2
    0    0    0
    0    0    4
   -2   -1   -2    8    8
    2
    0    0    0
    0    0    4
   -2   -1   -2    8    9
    4
    0    0    0
    0    0    4
    4    4    0
    4    4    4
   -2   -1   -2    8   10
    1
    4    4    0
   -2   -1   -2    9    1
    1
    0    0    0
   -2   -1   -2    9    2
    1
    0    0    0
   -2   -1   -2    9    3
    1
    0    0    0
   -2   -1   -2    9    4
    1
    0    0    0
   -2   -1   -2    9    5
    2
    0    0    0
    0    0    4
   -2   -1   -2    9    6
    2
    0    0    0
    0    0    4
   -2   -1   -2    9    7
    2
    0    0    0
    0    0    4
   -2   -1   -2    9    8
    2
    0    0    0
    0    0    4
   -2   -1   -2    9    9
    2
    0    0    0
    0    0    4
   -2   -1   -2    9   10
    2
    0    0    0
    4    4    0
   -2   -1   -2   10    1
    2
    0    0    0
    0    0    4
   -2   -1   -2   10    2
    2
    0    0    0
    0    0    4
   -2   -1   -2   10    3
    2
    0    0    0
    0    0    4
   -2   -1   -2   10    4
    2
    0    0    0
    0    0    4
   -2   -1   -2   10    5
    1
    0    0    4
   -2   -1   -2   10    6
    1
    0    0    4
   -2   -1   -2   10    7
    1
    0    0    4
   -2   -1   -2   10    8
    1
    0    0    4
   -2   -1   -2   10    9
    1
    0    0    4
   -2   -1   -2   10   10
    2
    0    0    0
    0    0    4
   -2   -1   -1    1    1
    1
    0    0    0
   -2   -1   -1    1    2
    1
    0    0    0
   -2   -1   -1    1    3
    1
    0    0    0
   -2   -1   -1    1    4
    1
    0    0    0
   -2   -1   -1    1    5
    1
    0    0    0
   -2   -1   -1    1    6
    1
    0    0    0
   -2   -1   -1    1    7
    1
    0    0    0
   -2   -1   -1    1    8
    1
    0    0    0
   -2   -1   -1    1    9
    1
    0    0    0
   -2   -1   -1    1   10
    2
    0    0    0
    4    4    0
   -2   -1   -1    2    1
    1
    0    0    0
   -2   -1   -1    2    2
    1
    0    0    0
   -2   -1   -1    2    3
    1
    0    0    0
   -2   -1   -1    2    4
    1
    0    0    0
   -2   -1   -1    2    5
    1
    0    0    0
   -2   -1   -1    2    6
    1
    0    0    0
   -2   -1   -1    2    7
    1
    0    0    0
   -2   -1   -1    2    8
    1
    0    0    0
   -2   -1   -1    2    9
    1
    0    0    0
   -2   -1   -1    2   10
    1
    0    0    0
   -2   -1   -1    3    1
    1
    0    0    0
   -2   -1   -1    3    2
    1
    0    0    0
   -2   -1   -1    3    3
    1
    0    0    0
   -2   -1   -1    3    4
    1
    0    0    0
   -2   -1   -1    3    5
    2
    0    0    0
    4    0    0
   -2   -1   -1    3    6
    1
    0    0    0
   -2   -1   -1    3    7
    1
    0    0    0
   -2   -1   -1    3    8
    1
    0    0    0
   -2   -1   -1    3    9
    1
    0    0    0
   -2   -1   -1    3   10
    1
    4    4    0
   -2   -1   -1    4    1
    1
    0    0    0
   -2   -1   -1    4    2
    1
    0    0    0
   -2   -1   -1    4    3
    1
    0    0    0
   -2   -1   -1    4    4
    1
    0    0    0
   -2   -1   -1    4    5
    1
    0    0    0
   -2   -1   -1    4    6
    1
    0    0    0
   -2   -1   -1    4    7
    1
    0    0    0
   -2   -1   -1    4    8
    1
    0    0    0
   -2   -1   -1    4    9
    1
    0    0    0
   -2   -1   -1    4   10
    2
    0    0    0
    4    4    0
   -2   -1   -1    5    1
    2
    0    0    0
    4    4    0
   -2   -1   -1    5    2
    1
    4    4    0
   -2   -1   -1    5    3
    1
    0    0    0
   -2   -1   -1    5    4
    2
    0    0    0
    4    4    0
   -2   -1   -1    5    5
    1
    0    0    0
   -2   -1   -1    5    6
    1
    0    0    0
   -2   -1   -1    5    7
    1
    0    0    0
   -2   -1   -1    5    8
    1
    0    0    0
   -2   -1   -1    5    9
    2
    0    0    0
    4    4    0
   -2   -1   -1    5   10
    1
    4    4    0
   -2   -1   -1    6    1
    1
    0    0    0
   -2   -1   -1    6    2
    1
    0    0    0
   -2   -1   -1    6    3
    1
    0    0    0
   -2   -1   -1    6    4
    1
    0    0    0
   -2   -1   -1    6    5
    1
    0    0    0
   -2   -1   -1    6    6
    1
    0    0    0
   -2   -1   -1    6    7
    1
    0    0    0
   -2   -1   -1    6    8
    1
    0    0    0
   -2   -1   -1    6    9
    1
    0    0    0
   -2   -1   -1    6   10
    1
    4    4    0
   -2   -1   -1    7    1
    1
    4    4    0
   -2   -1   -1    7    2
    1
    4    4    0
   -2   -1   -1    7    3
    1
    4    4    0
   -2   -1   -1    7    4
    1
    4    4    0
   -2   -1   -1    7    5
    1
    4    0    0
   -2   -1   -1    7    6
    1
    4    4    0
   -2   -1   -1    7    7
    1
    0    0    0
   -2   -1   -1    7    8
    1
    0    0    0
   -2   -1   -1    7    9
    1
    4    4    0
   -2   -1   -1    7   10
    1
    4    4    0
   -2   -1   -1    8    1
    2
    0    0    0
    4    4    0
   -2   -1   -1    8    2
    1
    4    4    0
   -2   -1   -1    8    3
    1
    0    0    0
   -2   -1   -1    8    4
    2
    0    0    0
    4    4    0
   -2   -1   -1    8    5
    1
    0    0    0
   -2   -1   -1    8    6
    1
    0    0    0
   -2   -1   -1    8    7
    1
    0    0    0
   -2   -1   -1    8    8
    1
    0    0    0
   -2   -1   -1    8    9
    2
    0    0    0
    4    4    0
   -2   -1   -1    8   10
    1
    4    4    0
   -2   -1   -1    9    1
    1
    0    0    0
   -2   -1   -1    9    2
    1
    0    0    0
   -2   -1   -1    9    3
    1
    0    0    0
   -2   -1   -1    9    4
    1
    0    0    0
   -2   -1   -1    9    5
    1
    0    0    0
   -2   -1   -1    9    6
    1
    0    0    0
   -2   -1   -1    9    7
    1
    0    0    0
   -2   -1   -1    9    8
    1
    0    0    0
   -2   -1   -1    9    9
    1
    0    0    0
   -2   -1   -1    9   10
    2
    0    0    0
    4    4    0
   -2   -1   -1   10    1
    1
    0    0    0
   -2   -1   -1   10    2
    1
    0    0    0
   -2   -1   -1   10    3
    1
    0    0    0
   -2   -1   -1   10    4
    1
    0    0    0
   -2   -1   -1   10    5
    1
    0    0    0
   -2   -1   -1   10    6
    1
    0    0    0
   -2   -1   -1   10    7
    1
    0    0    0
   -2   -1   -1   10    8
    1
    0    0    0
   -2   -1   -1   10    9
    1
    0    0    0
   -2   -1   -1   10   10
    1
    0    0    0
   -2   -1    0    1    1
    1
    0    0    0
   -2   -1    0    1    2
    1
    0    0    0
   -2   -1    0    1    3
    1
    0    0    0
   -2   -1    0    1    4
    1
    0    0    0
   -2   -1    0    1    5
    1
    0    0    0
   -2   -1    0    1    6
    1
    0    0    0
   -2   -1    0    1    7
    1
    0    0    0
   -2   -1    0    1    8
    1
    0    0    0
   -2   -1    0    1    9
    1
    0    0    0
   -2   -1    0    1   10
    2
    0    0    0
    4    4    0
   -2   -1    0    2    1
    1
    0    0    0
   -2   -1    0    2    2
    1
    0    0    0
   -2   -1    0    2    3
    1
    0    0    0
   -2   -1    0    2    4
    1
    0    0    0
   -2   -1    0    2    5
    1
    0    0    0
   -2   -1    0    2    6
    1
    0    0    0
   -2   -1    0    2    7
    1
    0    0    0
   -2   -1    0    2    8
    1
    0    0    0
   -2   -1    0    2    9
    1
    0    0    0
   -2   -1    0    2   10
    1
    0    0    0
   -2   -1    0    3    1
    1
    0    0    0
   -2   -1    0    3    2
    1
    0    0    0
   -2   -1    0    3    3
    1
    0    0    0
   -2   -1    0    3    4
    1
    0    0    0
   -2   -1    0    3    5
    2
    0    0    0
    4    0    0
   -2   -1    0    3    6
    1
    0    0    0
   -2   -1    0    3    7
    1
    0    0    0
   -2   -1    0    3    8
    1
    0    0    0
   -2   -1    0    3    9
    1
    0    0    0
   -2   -1    0    3   10
    1
    4    4    0
   -2   -1    0    4    1
    1
    0    0    0
   -2   -1    0    4    2
    1
    0    0    0
   -2   -1    0    4    3
    1
    0    0    0
   -2   -1    0    4    4
    1
    0    0    0
   -2   -1    0    4    5
    1
    0    0    0
   -2   -1    0    4    6
    1
    0    0    0
   -2   -1    0    4    7
    1
    0    0    0
   -2   -1    0    4    8
    1
    0    0    0
   -2   -1    0    4    9
    1
    0    0    0
   -2   -1    0    4   10
    2
    0    0    0
    4    4    0
   -2   -1    0    5    1
    2
    0    0    0
    4    4    0
   -2   -1    0    5    2
    1
    4    4    0
   -2   -1    0    5    3
    1
    0    0    0
   -2   -1    0    5    4
    2
    0    0    0
    4    4    0
   -2   -1    0    5    5
    1
    0    0    0
   -2   -1    0    5    6
    1
    0    0    0
   -2   -1    0    5    7
    1
    0    0    0
   -2   -1    0    5    8
    1
    0    0    0
   -2   -1    0    5    9
    2
    0    0    0
    4    4    0
   -2   -1    0    5   10
    1
    4    4    0
   -2   -1    0    6    1
    1
    0    0    0
   -2   -1    0    6    2
    1
    0    0    0
   -2   -1    0    6    3
    1
    0    0    0
   -2   -1    0    6    4
    1
    0    0    0
   -2   -1    0    6    5
    1
    0    0    0
   -2   -1    0    6    6
    1
    0    0    0
   -2   -1    0    6    7
    1
    0    0    0
   -2   -1    0    6    8
    1
    0    0    0
   -2   -1    0    6    9
    1
    0    0    0
   -2   -1    0    6   10
    1
    4    4    0
   -2   -1    0    7    1
    1
    4    4    0
   -2   -1    0    7    2
    1
    4    4    0
   -2   -1    0    7    3
    1
    4    4    0
   -2   -1    0    7    4
    1
    4    4    0
   -2   -1    0    7    5
    1
    4    0    0
   -2   -1    0    7    6
    1
    4    4    0
   -2   -1    0    7    7
    1
    0    0    0
   -2   -1    0    7    8
    1
    0    0    0
   -2   -1    0    7    9
    1
    4    4    0
   -2   -1    0    7   10
    1
    4    4    0
   -2   -1    0    8    1
    2
    0    0    0
    4    4    0
   -2   -1    0    8    2
    1
    4    4    0
   -2   -1    0    8    3
    1
    0    0    0
   -2   -1    0    8    4
    2
    0    0    0
    4    4    0
   -2   -1    0    8    5
    1
    0    0    0
   -2   -1    0    8    6
    1
    0    0    0
   -2   -1    0    8    7
    1
    0    0    0
   -2   -1    0    8    8
    1
    0    0    0
   -2   -1    0    8    9
    2
    0    0    0
    4    4    0
   -2   -1    0    8   10
    1
    4    4    0
   -2   -1    0    9    1
    1
    0    0    0
   -2   -1    0    9    2
    1
    0    0    0
   -2   -1    0    9    3
    1
    0    0    0
   -2   -1    0    9    4
    1
    0    0    0
   -2   -1    0    9    5
    1
    0    0    0
   -2   -1    0    9    6
    1
    0    0    0
   -2   -1    0    9    7
    1
    0    0    0
   -2   -1    0    9    8
    1
    0    0    0
   -2   -1    0    9    9
    1
    0    0    0
   -2   -1    0    9   10
    2
    0    0    0
    4    4    0
   -2   -1    0   10    1
    1
    0    0    0
   -2   -1    0   10    2
    1
    0    0    0
   -2   -1    0   10    3
    1
    0    0    0
   -2   -1    0   10    4
    1
    0    0    0
   -2   -1    0   10    5
    1
    0    0    0
   -2   -1    0   10    6
    1
    0    0    0
   -2   -1    0   10    7
    1
    0    0    0
   -2   -1    0   10    8
    1
    0    0    0
   -2   -1    0   10    9
    1
    0    0    0
   -2   -1    0   10   10
    1
    0    0    0
   -2   -1    1    1    1
    1
    0    0    0
   -2   -1    1    1    2
    1
    0    0    0
   -2   -1    1    1    3
    1
    0    0    0
   -2   -1    1    1    4
    1
    0    0    0
   -2   -1    1    1    5
    1
    0    0    0
   -2   -1    1    1    6
    1
    0    0    0
   -2   -1    1    1    7
    1
    0    0    0
   -2   -1    1    1    8
    1
    0    0    0
   -2   -1    1    1    9
    1
    0    0    0
   -2   -1    1    1   10
    2
    0    0    0
    4    4    0
   -2   -1    1    2    1
    1
    0    0    0
   -2   -1    1    2    2
    1
    0    0    0
   -2   -1    1    2    3
    1
    0    0    0
   -2   -1    1    2    4
    1
    0    0    0
   -2   -1    1    2    5
    1
    0    0    0
   -2   -1    1    2    6
    1
    0    0    0
   -2   -1    1    2    7
    1
    0    0    0
   -2   -1    1    2    8
    1
    0    0    0
   -2   -1    1    2    9
    1
    0    0    0
   -2   -1    1    2   10
    1
    0    0    0
   -2   -1    1    3    1
    1
    0    0    0
   -2   -1    1    3    2
    1
    0    0    0
   -2   -1    1    3    3
    1
    0    0    0
   -2   -1    1    3    4
    1
    0    0    0
   -2   -1    1    3    5
    2
    0    0    0
    4    0    0
   -2   -1    1    3    6
    1
    0    0    0
   -2   -1    1    3    7
    1
    0    0    0
   -2   -1    1    3    8
    1
    0    0    0
   -2   -1    1    3    9
    1
    0    0    0
   -2   -1    1    3   10
    1
    4    4    0
   -2   -1    1    4    1
    1
    0    0    0
   -2   -1    1    4    2
    1
    0    0    0
   -2   -1    1    4    3
    1
    0    0    0
   -2   -1    1    4    4
    1
    0    0    0
   -2   -1    1    4    5
    1
    0    0    0
   -2   -1    1    4    6
    1
    0    0    0
   -2   -1    1    4    7
    1
    0    0    0
   -2   -1    1    4    8
    1
    0    0    0
   -2   -1    1    4    9
    1
    0    0    0
   -2   -1    1    4   10
    2
    0    0    0
    4    4    0
   -2   -1    1    5    1
    2
    0    0    0
    4    4    0
   -2   -1    1    5    2
    1
    4    4    0
   -2   -1    1    5    3
    1
    0    0    0
   -2   -1    1    5    4
    2
    0    0    0
    4    4    0
   -2   -1    1    5    5
    1
    0    0    0
   -2   -1    1    5    6
    1
    0    0    0
   -2   -1    1    5    7
    1
    0    0    0
   -2   -1    1    5    8
    1
    0    0    0
   -2   -1    1    5    9
    2
    0    0    0
    4    4    0
   -2   -1    1    5   10
    1
    4    4    0
   -2   -1    1    6    1
    1
    0    0    0
   -2   -1    1    6    2
    1
    0    0    0
   -2   -1    1    6    3
    1
    0    0    0
   -2   -1    1    6    4
    1
    0    0    0
   -2   -1    1    6    5
    1
    0    0    0
   -2   -1    1    6    6
    1
    0    0    0
   -2   -1    1    6    7
    1
    0    0    0
   -2   -1    1    6    8
    1
    0    0    0
   -2   -1    1    6    9
    1
    0    0    0
   -2   -1    1    6   10
    1
    4    4    0
   -2   -1    1    7    1
    1
    4    4    0
   -2   -1    1    7    2
    1
    4    4    0
   -2   -1    1    7    3
    1
    4    4    0
   -2   -1    1    7    4
    1
    4    4    0
   -2   -1    1    7    5
    1
    4    0    0
   -2   -1    1    7    6
    1
    4    4    0
   -2   -1    1    7    7
    1
    0    0    0
   -2   -1    1    7    8
    1
    0    0    0
   -2   -1    1    7    9
    1
    4    4    0
   -2   -1    1    7   10
    1
    4    4    0
   -2   -1    1    8    1
    2
    0    0    0
    4    4    0
   -2   -1    1    8    2
    1
    4    4    0
   -2   -1    1    8    3
    1
    0    0    0
   -2   -1    1    8    4
    2
    0    0    0
    4    4    0
   -2   -1    1    8    5
    1
    0    0    0
   -2   -1    1    8    6
    1
    0    0    0
   -2   -1    1    8    7
    1
    0    0    0
   -2   -1    1    8    8
    1
    0    0    0
   -2   -1    1    8    9
    2
    0    0    0
    4    4    0
   -2   -1    1    8   10
    1
    4    4    0
   -2   -1    1    9    1
    1
    0    0    0
   -2   -1    1    9    2
    1
    0    0    0
   -2   -1    1    9    3
    1
    0    0    0
   -2   -1    1    9    4
    1
    0    0    0
   -2   -1    1    9    5
    1
    0    0    0
   -2   -1    1    9    6
    1
    0    0    0
   -2   -1    1    9    7
    1
    0    0    0
   -2   -1    1    9    8
    1
    0    0    0
   -2   -1    1    9    9
    1
    0    0    0
   -2   -1    1    9   10
    2
    0    0    0
    4    4    0
   -2   -1    1   10    1
    1
    0    0    0
   -2   -1    1   10    2
    1
    0    0    0
   -2   -1    1   10    3
    1
    0    0    0
   -2   -1    1   10    4
    1
    0    0    0
   -2   -1    1   10    5
    1
    0    0    0
   -2   -1    1   10    6
    1
    0    0    0
   -2   -1    1   10    7
    1
    0    0    0
   -2   -1    1   10    8
    1
    0    0    0
   -2   -1    1   10    9
    1
    0    0    0
   -2   -1    1   10   10
    1
    0    0    0
   -2   -1    2    1    1
    2
    0    0   -4
    0    0    0
   -2   -1    2    1    2
    2
    0    0   -4
    0    0    0
   -2   -1    2    1    3
    2
    0    0   -4
    0    0    0
   -2   -1    2    1    4
    2
    0    0   -4
    0    0    0
   -2   -1    2    1    5
    1
    0    0    0
   -2   -1    2    1    6
    1
    0    0    0
   -2   -1    2    1    7
    1
    0    0    0
   -2   -1    2    1    8
    1
    0    0    0
   -2   -1    2    1    9
    1
    0    0    0
   -2   -1    2    1   10
    4
    0    0   -4
    0    0    0
    4    4   -4
    4    4    0
   -2   -1    2    2    1
    2
    0    0   -4
    0    0    0
   -2   -1    2    2    2
    2
    0    0   -4
    0    0    0
   -2   -1    2    2    3
    2
    0    0   -4
    0    0    0
   -2   -1    2    2    4
    2
    0    0   -4
    0    0    0
   -2   -1    2    2    5
    1
    0    0    0
   -2   -1    2    2    6
    1
    0    0    0
   -2   -1    2    2    7
    1
    0    0    0
   -2   -1    2    2    8
    1
    0    0    0
   -2   -1    2    2    9
    1
    0    0    0
   -2   -1    2    2   10
    2
    0    0   -4
    0    0    0
   -2   -1    2    3    1
    2
    0    0   -4
    0    0    0
   -2   -1    2    3    2
    2
    0    0   -4
    0    0    0
   -2   -1    2    3    3
    2
    0    0   -4
    0    0    0
   -2   -1    2    3    4
    2
    0    0   -4
    0    0    0
   -2   -1    2    3    5
    2
    0    0    0
    4    0    0
   -2   -1    2    3    6
    1
    0    0    0
   -2   -1    2    3    7
    1
    0    0    0
   -2   -1    2    3    8
    1
    0    0    0
   -2   -1    2    3    9
    1
    0    0    0
   -2   -1    2    3   10
    2
    4    4   -4
    4    4    0
   -2   -1    2    4    1
    2
    0    0   -4
    0    0    0
   -2   -1    2    4    2
    2
    0    0   -4
    0    0    0
   -2   -1    2    4    3
    2
    0    0   -4
    0    0    0
   -2   -1    2    4    4
    2
    0    0   -4
    0    0    0
   -2   -1    2    4    5
    1
    0    0    0
   -2   -1    2    4    6
    1
    0    0    0
   -2   -1    2    4    7
    1
    0    0    0
   -2   -1    2    4    8
    1
    0    0    0
   -2   -1    2    4    9
    1
    0    0    0
   -2   -1    2    4   10
    4
    0    0   -4
    0    0    0
    4    4   -4
    4    4    0
   -2   -1    2    5    1
    2
    0    0   -4
    4    4   -4
   -2   -1    2    5    2
    1
    4    4   -4
   -2   -1    2    5    3
    1
    0    0   -4
   -2   -1    2    5    4
    2
    0    0   -4
    4    4   -4
   -2   -1    2    5    5
    2
    0    0   -4
    0    0    0
   -2   -1    2    5    6
    2
    0    0   -4
    0    0    0
   -2   -1    2    5    7
    2
    0    0   -4
    0    0    0
   -2   -1    2    5    8
    2
    0    0   -4
    0    0    0
   -2   -1    2    5    9
    4
    0    0   -4
    0    0    0
    4    4   -4
    4    4    0
   -2   -1    2    5   10
    1
    4    4   -4
   -2   -1    2    6    1
    1
    0    0   -4
   -2   -1    2    6    2
    1
    0    0   -4
   -2   -1    2    6    3
    1
    0    0   -4
   -2   -1    2    6    4
    1
    0    0   -4
   -2   -1    2    6    5
    2
    0    0   -4
    0    0    0
   -2   -1    2    6    6
    2
    0    0   -4
    0    0    0
   -2   -1    2    6    7
    2
    0    0   -4
    0    0    0
   -2   -1    2    6    8
    2
    0    0   -4
    0    0    0
   -2   -1    2    6    9
    2
    0    0   -4
    0    0    0
   -2   -1    2    6   10
    1
    4    4   -4
   -2   -1    2    7    1
    1
    4    4   -4
   -2   -1    2    7    2
    1
    4    4   -4
   -2   -1    2    7    3
    1
    4    4   -4
   -2   -1    2    7    4
    1
    4    4   -4
   -2   -1    2    7    5
    2
    4    0   -4
    4    0    0
   -2   -1    2    7    6
    2
    4    4   -4
    4    4    0
   -2   -1    2    7    7
    2
    0    0   -4
    0    0    0
   -2   -1    2    7    8
    2
    0    0   -4
    0    0    0
   -2   -1    2    7    9
    2
    4    4   -4
    4    4    0
   -2   -1    2    7   10
    1
    4    4   -4
   -2   -1    2    8    1
    2
    0    0   -4
    4    4   -4
   -2   -1    2    8    2
    1
    4    4   -4
   -2   -1    2    8    3
    1
    0    0   -4
   -2   -1    2    8    4
    2
    0    0   -4
    4    4   -4
   -2   -1    2    8    5
    2
    0    0   -4
    0    0    0
   -2   -1    2    8    6
    2
    0    0   -4
    0    0    0
   -2   -1    2    8    7
    2
    0    0   -4
    0    0    0
   -2   -1    2    8    8
    2
    0    0   -4
    0    0    0
   -2   -1    2    8    9
    4
    0    0   -4
    0    0    0
    4    4   -4
    4    4    0
   -2   -1    2    8   10
    1
    4    4   -4
   -2   -1    2    9    1
    1
    0    0   -4
   -2   -1    2    9    2
    1
    0    0   -4
   -2   -1    2    9    3
    1
    0    0   -4
   -2   -1    2    9    4
    1
    0    0   -4
   -2   -1    2    9    5
    2
    0    0   -4
    0    0    0
   -2   -1    2    9    6
    2
    0    0   -4
    0    0    0
   -2   -1    2    9    7
    2
    0    0   -4
    0    0    0
   -2   -1    2    9    8
    2
    0    0   -4
    0    0    0
   -2   -1    2    9    9
    2
    0    0   -4
    0    0    0
   -2   -1    2    9   10
    2
    0    0   -4
    4    4   -4
   -2   -1    2   10    1
    2
    0    0   -4
    0    0    0
   -2   -1    2   10    2
    2
    0    0   -4
    0    0    0
   -2   -1    2   10    3
    2
    0    0   -4
    0    0    0
   -2   -1    2   10    4
    2
    0    0   -4
    0    0    0
   -2   -1    2   10    5
    1
    0    0    0
   -2   -1    2   10    6
    1
    0    0    0
   -2   -1    2   10    7
    1
    0    0    0
   -2   -1    2   10    8
    1
    0    0    0
   -2   -1    2   10    9
    1
    0    0    0
   -2   -1    2   10   10
    2
    0    0   -4
    0    0    0
   -2    0   -2    1    1
    4
    0    0    0
    0    0    4
    4    0    0
    4    0    4
   -2    0   -2    1    2
    2
    0    0    0
    0    0    4
   -2    0   -2    1    3
    2
    0    0    0
    0    0    4
   -2    0   -2    1    4
    2
    0    0    0
    0    0    4
   -2    0   -2    1    5
    1
    4    0    4
   -2    0   -2    1    6
    1
    0    0    4
   -2    0   -2    1    7
    1
    0    0    4
   -2    0   -2    1    8
    1
    0    0    4
   -2    0   -2    1    9
    1
    0    0    4
   -2    0   -2    1   10
    2
    0    0    0
    0    0    4
   -2    0   -2    2    1
    2
    4    0    0
    4    0    4
   -2    0   -2    2    2
    4
    0    0    0
    0    0    4
    4    0    0
    4    0    4
   -2    0   -2    2    3
    2
    0    0    0
    0    0    4
   -2    0   -2    2    4
    4
    0    0    0
    0    0    4
    4    0    0
    4    0    4
   -2    0   -2    2    5
    1
    4    0    4
   -2    0   -2    2    6
    2
    0    0    4
    4    0    4
   -2    0   -2    2    7
    1
    0    0    4
   -2    0   -2    2    8
    2
    0    0    4
    4    0    4
   -2    0   -2    2    9
    2
    0    0    4
    4    0    4
   -2    0   -2    2   10
    4
    0    0    0
    0    0    4
    4    0    0
    4    0    4
   -2    0   -2    3    1
    2
    4    0    0
    4    0    4
   -2    0   -2    3    2
    2
    4    0    0
    4    0    4
   -2    0   -2    3    3
    4
    0    0    0
    0    0    4
    4    0    0
    4    0    4
   -2    0   -2    3    4
    2
    4    0    0
    4    0    4
   -2    0   -2    3    5
    1
    4    0    4
   -2    0   -2    3    6
    1
    4    0    4
   -2    0   -2    3    7
    1
    0    0    4
   -2    0   -2    3    8
    1
    4    0    4
   -2    0   -2    3    9
    1
    4    0    4
   -2    0   -2    3   10
    2
    4    0    0
    4    0    4
   -2    0   -2    4    1
    2
    4    0    0
    4    0    4
   -2    0   -2    4    2
    4
    0    0    0
    0    0    4
    4    0    0
    4    0    4
   -2    0   -2    4    3
    2
    0    0    0
    0    0    4
   -2    0   -2    4    4
    4
    0    0    0
    0    0    4
    4    0    0
    4    0    4
   -2    0   -2    4    5
    1
    4    0    4
   -2    0   -2    4    6
    2
    0    0    4
    4    0    4
   -2    0   -2    4    7
    1
    0    0    4
   -2    0   -2    4    8
    2
    0    0    4
    4    0    4
   -2    0   -2    4    9
    2
    0    0    4
    4    0    4
   -2    0   -2    4   10
    4
    0    0    0
    0    0    4
    4    0    0
    4    0    4
   -2    0   -2    5    1
    1
    0    0    0
   -2    0   -2    5    2
    1
    0    0    0
   -2    0   -2    5    3
    1
    0    0    0
   -2    0   -2    5    4
    1
    0    0    0
   -2    0   -2    5    5
    4
    0    0    0
    0    0    4
    4    0    0
    4    0    4
   -2    0   -2    5    6
    2
    0    0    0
    0    0    4
   -2    0   -2    5    7
    2
    0    0    0
    0    0    4
   -2    0   -2    5    8
    2
    0    0    0
    0    0    4
   -2    0   -2    5    9
    2
    0    0    0
    0    0    4
   -2    0   -2    5   10
    2
    0    0    0
    4    4    0
   -2    0   -2    6    1
    1
    4    0    0
   -2    0   -2    6    2
    2
    0    0    0
    4    0    0
   -2    0   -2    6    3
    1
    0    0    0
   -2    0   -2    6    4
    2
    0    0    0
    4    0    0
   -2    0   -2    6    5
    2
    4    0    0
    4    0    4
   -2    0   -2    6    6
    4
    0    0    0
    0    0    4
    4    0    0
    4    0    4
   -2    0   -2    6    7
    2
    0    0    0
    0    0    4
   -2    0   -2    6    8
    4
    0    0    0
    0    0    4
    4    0    0
    4    0    4
   -2    0   -2    6    9
    4
    0    0    0
    0    0    4
    4    0    0
    4    0    4
   -2    0   -2    6   10
    2
    0    0    0
    4    0    0
   -2    0   -2    7    1
    1
    4    0    0
   -2    0   -2    7    2
    1
    4    0    0
   -2    0   -2    7    3
    1
    4    0    0
   -2    0   -2    7    4
    1
    4    0    0
   -2    0   -2    7    5
    2
    4    0    0
    4    0    4
   -2    0   -2    7    6
    2
    4    0    0
    4    0    4
   -2    0   -2    7    7
    4
    0    0    0
    0    0    4
    4    0    0
    4    0    4
   -2    0   -2    7    8
    2
    4    0    0
    4    0    4
   -2    0   -2    7    9
    2
    4    0    0
    4    0    4
   -2    0   -2    7   10
    2
    4    0    0
    4    4    0
   -2    0   -2    8    1
    1
    4    0    0
   -2    0   -2    8    2
    2
    0    0    0
    4    0    0
   -2    0   -2    8    3
    1
    0    0    0
   -2    0   -2    8    4
    2
    0    0    0
    4    0    0
   -2    0   -2    8    5
    2
    4    0    0
    4    0    4
   -2    0   -2    8    6
    4
    0    0    0
    0    0    4
    4    0    0
    4    0    4
   -2    0   -2    8    7
    2
    0    0    0
    0    0    4
   -2    0   -2    8    8
    4
    0    0    0
    0    0    4
    4    0    0
    4    0    4
   -2    0   -2    8    9
    4
    0    0    0
    0    0    4
    4    0    0
    4    0    4
   -2    0   -2    8   10
    3
    0    0    0
    4    0    0
    4    4    0
   -2    0   -2    9    1
    1
    4    0    0
   -2    0   -2    9    2
    2
    0    0    0
    4    0    0
   -2    0   -2    9    3
    1
    0    0    0
   -2    0   -2    9    4
    2
    0    0    0
    4    0    0
   -2    0   -2    9    5
    2
    4    0    0
    4    0    4
   -2    0   -2    9    6
    4
    0    0    0
    0    0    4
    4    0    0
    4    0    4
   -2    0   -2    9    7
    2
    0    0    0
    0    0    4
   -2    0   -2    9    8
    4
    0    0    0
    0    0    4
    4    0    0
    4    0    4
   -2    0   -2    9    9
    4
    0    0    0
    0    0    4
    4    0    0
    4    0    4
   -2    0   -2    9   10
    2
    0    0    0
    4    0    0
   -2    0   -2   10    1
    2
    4    0    0
    4    0    4
   -2    0   -2   10    2
    4
    0    0    0
    0    0    4
    4    0    0
    4    0    4
   -2    0   -2   10    3
    2
    0    0    0
    0    0    4
   -2    0   -2   10    4
    4
    0    0    0
    0    0    4
    4    0    0
    4    0    4
   -2    0   -2   10    5
    2
    0   -4    4
    4    0    4
   -2    0   -2   10    6
    2
    0    0    4
    4    0    4
   -2    0   -2   10    7
    2
    0   -4    4
    0    0    4
   -2    0   -2   10    8
    3
    0   -4    4
    0    0    4
    4    0    4
   -2    0   -2   10    9
    2
    0    0    4
    4    0    4
   -2    0   -2   10   10
    4
    0    0    0
    0    0    4
    4    0    0
    4    0    4
   -2    0   -1    1    1
    2
    0    0    0
    4    0    0
   -2    0   -1    1    2
    1
    0    0    0
   -2    0   -1    1    3
    1
    0    0    0
   -2    0   -1    1    4
    1
    0    0    0
   -2    0   -1    1    5
    1
    4    0    0
   -2    0   -1    1    6
    1
    0    0    0
   -2    0   -1    1    7
    1
    0    0    0
   -2    0   -1    1    8
    1
    0    0    0
   -2    0   -1    1    9
    1
    0    0    0
   -2    0   -1    1   10
    1
    0    0    0
   -2    0   -1    2    1
    1
    4    0    0
   -2    0   -1    2    2
    2
    0    0    0
    4    0    0
   -2    0   -1    2    3
    1
    0    0    0
   -2    0   -1    2    4
    2
    0    0    0
    4    0    0
   -2    0   -1    2    5
    1
    4    0    0
   -2    0   -1    2    6
    2
    0    0    0
    4    0    0
   -2    0   -1    2    7
    1
    0    0    0
   -2    0   -1    2    8
    2
    0    0    0
    4    0    0
   -2    0   -1    2    9
    2
    0    0    0
    4    0    0
   -2    0   -1    2   10
    2
    0    0    0
    4    0    0
   -2    0   -1    3    1
    1
    4    0    0
   -2    0   -1    3    2
    1
    4    0    0
   -2    0   -1    3    3
    2
    0    0    0
    4    0    0
   -2    0   -1    3    4
    1
    4    0    0
   -2    0   -1    3    5
    1
    4    0    0
   -2    0   -1    3    6
    1
    4    0    0
   -2    0   -1    3    7
    1
    0    0    0
   -2    0   -1    3    8
    1
    4    0    0
   -2    0   -1    3    9
    1
    4    0    0
   -2    0   -1    3   10
    1
    4    0    0
   -2    0   -1    4    1
    1
    4    0    0
   -2    0   -1    4    2
    2
    0    0    0
    4    0    0
   -2    0   -1    4    3
    1
    0    0    0
   -2    0   -1    4    4
    2
    0    0    0
    4    0    0
   -2    0   -1    4    5
    1
    4    0    0
   -2    0   -1    4    6
    2
    0    0    0
    4    0    0
   -2    0   -1    4    7
    1
    0    0    0
   -2    0   -1    4    8
    2
    0    0    0
    4    0    0
   -2    0   -1    4    9
    2
    0    0    0
    4    0    0
   -2    0   -1    4   10
    2
    0    0    0
    4    0    0
   -2    0   -1    5    1
    1
    0    0    0
   -2    0   -1    5    2
    1
    0    0    0
   -2    0   -1    5    3
    1
    0    0    0
   -2    0   -1    5    4
    1
    0    0    0
   -2    0   -1    5    5
    2
    0    0    0
    4    0    0
   -2    0   -1    5    6
    1
    0    0    0
   -2    0   -1    5    7
    1
    0    0    0
   -2    0   -1    5    8
    1
    0    0    0
   -2    0   -1    5    9
    1
    0    0    0
   -2    0   -1    5   10
    2
    0    0    0
    4    4    0
   -2    0   -1    6    1
    1
    4    0    0
   -2    0   -1    6    2
    2
    0    0    0
    4    0    0
   -2    0   -1    6    3
    1
    0    0    0
   -2    0   -1    6    4
    2
    0    0    0
    4    0    0
   -2    0   -1    6    5
    1
    4    0    0
   -2    0   -1    6    6
    2
    0    0    0
    4    0    0
   -2    0   -1    6    7
    1
    0    0    0
   -2    0   -1    6    8
    2
    0    0    0
    4    0    0
   -2    0   -1    6    9
    2
    0    0    0
    4    0    0
   -2    0   -1    6   10
    2
    0    0    0
    4    0    0
   -2    0   -1    7    1
    1
    4    0    0
   -2    0   -1    7    2
    1
    4    0    0
   -2    0   -1    7    3
    1
    4    0    0
   -2    0   -1    7    4
    1
    4    0    0
   -2    0   -1    7    5
    1
    4    0    0
   -2    0   -1    7    6
    1
    4    0    0
   -2    0   -1    7    7
    2
    0    0    0
    4    0    0
   -2    0   -1    7    8
    1
    4    0    0
   -2    0   -1    7    9
    1
    4    0    0
   -2    0   -1    7   10
    2
    4    0    0
    4    4    0
   -2    0   -1    8    1
    1
    4    0    0
   -2    0   -1    8    2
    2
    0    0    0
    4    0    0
   -2    0   -1    8    3
    1
    0    0    0
   -2    0   -1    8    4
    2
    0    0    0
    4    0    0
   -2    0   -1    8    5
    1
    4    0    0
   -2    0   -1    8    6
    2
    0    0    0
    4    0    0
   -2    0   -1    8    7
    1
    0    0    0
   -2    0   -1    8    8
    2
    0    0    0
    4    0    0
   -2    0   -1    8    9
    2
    0    0    0
    4    0    0
   -2    0   -1    8   10
    3
    0    0    0
    4    0    0
    4    4    0
   -2    0   -1    9    1
    1
    4    0    0
   -2    0   -1    9    2
    2
    0    0    0
    4    0    0
   -2    0   -1    9    3
    1
    0    0    0
   -2    0   -1    9    4
    2
    0    0    0
    4    0    0
   -2    0   -1    9    5
    1
    4    0    0
   -2    0   -1    9    6
    2
    0    0    0
    4    0    0
   -2    0   -1    9    7
    1
    0    0    0
   -2    0   -1    9    8
    2
    0    0    0
    4    0    0
   -2    0   -1    9    9
    2
    0    0    0
    4    0    0
   -2    0   -1    9   10
    2
    0    0    0
    4    0    0
   -2    0   -1   10    1
    1
    4    0    0
   -2    0   -1   10    2
    2
    0    0    0
    4    0    0
   -2    0   -1   10    3
    1
    0    0    0
   -2    0   -1   10    4
    2
    0    0    0
    4    0    0
   -2    0   -1   10    5
    2
    0   -4    0
    4    0    0
   -2    0   -1   10    6
    2
    0    0    0
    4    0    0
   -2    0   -1   10    7
    2
    0   -4    0
    0    0    0
   -2    0   -1   10    8
    3
    0   -4    0
    0    0    0
    4    0    0
   -2    0   -1   10    9
    2
    0    0    0
    4    0    0
   -2    0   -1   10   10
    2
    0    0    0
    4    0    0
   -2    0    0    1    1
    2
    0    0    0
    4    0    0
   -2    0    0    1    2
    1
    0    0    0
   -2    0    0    1    3
    1
    0    0    0
   -2    0    0    1    4
    1
    0    0    0
   -2    0    0    1    5
    1
    4    0    0
   -2    0    0    1    6
    1
    0    0    0
   -2    0    0    1    7
    1
    0    0    0
   -2    0    0    1    8
    1
    0    0    0
   -2    0    0    1    9
    1
    0    0    0
   -2    0    0    1   10
    1
    0    0    0
   -2    0    0    2    1
    1
    4    0    0
   -2    0    0    2    2
    2
    0    0    0
    4    0    0
   -2    0    0    2    3
    1
    0    0    0
   -2    0    0    2    4
    2
    0    0    0
    4    0    0
   -2    0    0    2    5
    1
    4    0    0
   -2    0    0    2    6
    2
    0    0    0
    4    0    0
   -2    0    0    2    7
    1
    0    0    0
   -2    0    0    2    8
    2
    0    0    0
    4    0    0
   -2    0    0    2    9
    2
    0    0    0
    4    0    0
   -2    0    0    2   10
    2
    0    0    0
    4    0    0
   -2    0    0    3    1
    1
    4    0    0
   -2    0    0    3    2
    1
    4    0    0
   -2    0    0    3    3
    2
    0    0    0
    4    0    0
   -2    0    0    3    4
    1
    4    0    0
   -2    0    0    3    5
    1
    4    0    0
   -2    0    0    3    6
    1
    4    0    0
   -2    0    0    3    7
    1
    0    0    0
   -2    0    0    3    8
    1
    4    0    0
   -2    0    0    3    9
    1
    4    0    0
   -2    0    0    3   10
    1
    4    0    0
   -2    0    0    4    1
    1
    4    0    0
   -2    0    0    4    2
    2
    0    0    0
    4    0    0
   -2    0    0    4    3
    1
    0    0    0
   -2    0    0    4    4
    2
    0    0    0
    4    0    0
   -2    0    0    4    5
    1
    4    0    0
   -2    0    0    4    6
    2
    0    0    0
    4    0    0
   -2    0    0    4    7
    1
    0    0    0
   -2    0    0    4    8
    2
    0    0    0
    4    0    0
   -2    0    0    4    9
    2
    0    0    0
    4    0    0
   -2    0    0    4   10
    2
    0    0    0
    4    0    0
   -2    0    0    5    1
    1
    0    0    0
   -2    0    0    5    2
    1
    0    0    0
   -2    0    0    5    3
    1
    0    0    0
   -2    0    0    5    4
    1
    0    0    0
   -2    0    0    5    5
    2
    0    0    0
    4    0    0
   -2    0    0    5    6
    1
    0    0    0
   -2    0    0    5    7
    1
    0    0    0
   -2    0    0    5    8
    1
    0    0    0
   -2    0    0    5    9
    1
    0    0    0
   -2    0    0    5   10
    2
    0    0    0
    4    4    0
   -2    0    0    6    1
    1
    4    0    0
   -2    0    0    6    2
    2
    0    0    0
    4    0    0
   -2    0    0    6    3
    1
    0    0    0
   -2    0    0    6    4
    2
    0    0    0
    4    0    0
   -2    0    0    6    5
    1
    4    0    0
   -2    0    0    6    6
    2
    0    0    0
    4    0    0
   -2    0    0    6    7
    1
    0    0    0
   -2    0    0    6    8
    2
    0    0    0
    4    0    0
   -2    0    0    6    9
    2
    0    0    0
    4    0    0
   -2    0    0    6   10
    2
    0    0    0
    4    0    0
   -2    0    0    7    1
    1
    4    0    0
   -2    0    0    7    2
    1
    4    0    0
   -2    0    0    7    3
    1
    4    0    0
   -2    0    0    7    4
    1
    4    0    0
   -2    0    0    7    5
    1
    4    0    0
   -2    0    0    7    6
    1
    4    0    0
   -2    0    0    7    7
    2
    0    0    0
    4    0    0
   -2    0    0    7    8
    1
    4    0    0
   -2    0    0    7    9
    1
    4    0    0
   -2    0    0    7   10
    2
    4    0    0
    4    4    0
   -2    0    0    8    1
    1
    4    0    0
   -2    0    0    8    2
    2
    0    0    0
    4    0    0
   -2    0    0    8    3
    1
    0    0    0
   -2    0    0    8    4
    2
    0    0    0
    4    0    0
   -2    0    0    8    5
    1
    4    0    0
   -2    0    0    8    6
    2
    0    0    0
    4    0    0
   -2    0    0    8    7
    1
    0    0    0
   -2    0    0    8    8
    2
    0    0    0
    4    0    0
   -2    0    0    8    9
    2
    0    0    0
    4    0    0
   -2    0    0    8   10
    3
    0    0    0
    4    0    0
    4    4    0
   -2    0    0    9    1
    1
    4    0    0
   -2    0    0    9    2
    2
    0    0    0
    4    0    0
   -2    0    0    9    3
    1
    0    0    0
   -2    0    0    9    4
    2
    0    0    0
    4    0    0
   -2    0    0    9    5
    1
    4    0    0
   -2    0    0    9    6
    2
    0    0    0
    4    0    0
   -2    0    0    9    7
    1
    0    0    0
   -2    0    0    9    8
    2
    0    0    0
    4    0    0
   -2    0    0    9    9
    2
    0    0    0
    4    0    0
   -2    0    0    9   10
    2
    0    0    0
    4    0    0
   -2    0    0   10    1
    1
    4    0    0
   -2    0    0   10    2
    2
    0    0    0
    4    0    0
   -2    0    0   10    3
    1
    0    0    0
   -2    0    0   10    4
    2
    0    0    0
    4    0    0
   -2    0    0   10    5
    2
    0   -4    0
    4    0    0
   -2    0    0   10    6
    2
    0    0    0
    4    0    0
   -2    0    0   10    7
    2
    0   -4    0
    0    0    0
   -2    0    0   10    8
    3
    0   -4    0
    0    0    0
    4    0    0
   -2    0    0   10    9
    2
    0    0    0
    4    0    0
   -2    0    0   10   10
    2
    0    0    0
    4    0    0
   -2    0    1    1    1
    2
    0    0    0
    4    0    0
   -2    0    1    1    2
    1
    0    0    0
   -2    0    1    1    3
    1
    0    0    0
   -2    0    1    1    4
    1
    0    0    0
   -2    0    1    1    5
    1
    4    0    0
   -2    0    1    1    6
    1
    0    0    0
   -2    0    1    1    7
    1
    0    0    0
   -2    0    1    1    8
    1
    0    0    0
   -2    0    1    1    9
    1
    0    0    0
   -2    0    1    1   10
    1
    0    0    0
   -2    0    1    2    1
    1
    4    0    0
   -2    0    1    2    2
    2
    0    0    0
    4    0    0
   -2    0    1    2    3
    1
    0    0    0
   -2    0    1    2    4
    2
    0    0    0
    4    0    0
   -2    0    1    2    5
    1
    4    0    0
   -2    0    1    2    6
    2
    0    0    0
    4    0    0
   -2    0    1    2    7
    1
    0    0    0
   -2    0    1    2    8
    2
    0    0    0
    4    0    0
   -2    0    1    2    9
    2
    0    0    0
    4    0    0
   -2    0    1    2   10
    2
    0    0    0
    4    0    0
   -2    0    1    3    1
    1
    4    0    0
   -2    0    1    3    2
    1
    4    0    0
   -2    0    1    3    3
    2
    0    0    0
    4    0    0
   -2    0    1    3    4
    1
    4    0    0
   -2    0    1    3    5
    1
    4    0    0
   -2    0    1    3    6
    1
    4    0    0
   -2    0    1    3    7
    1
    0    0    0
   -2    0    1    3    8
    1
    4    0    0
   -2    0    1    3    9
    1
    4    0    0
   -2    0    1    3   10
    1
    4    0    0
   -2    0    1    4    1
    1
    4    0    0
   -2    0    1    4    2
    2
    0    0    0
    4    0    0
   -2    0    1    4    3
    1
    0    0    0
   -2    0    1    4    4
    2
    0    0    0
    4    0    0
   -2    0    1    4    5
    1
    4    0    0
   -2    0    1    4    6
    2
    0    0    0
    4    0    0
   -2    0    1    4    7
    1
    0    0    0
   -2    0    1    4    8
    2
    0    0    0
    4    0    0
   -2    0    1    4    9
    2
    0    0    0
    4    0    0
   -2    0    1    4   10
    2
    0    0    0
    4    0    0
   -2    0    1    5    1
    1
    0    0    0
   -2    0    1    5    2
    1
    0    0    0
   -2    0    1    5    3
    1
    0    0    0
   -2    0    1    5    4
    1
    0    0    0
   -2    0    1    5    5
    2
    0    0    0
    4    0    0
   -2    0    1    5    6
    1
    0    0    0
   -2    0    1    5    7
    1
    0    0    0
   -2    0    1    5    8
    1
    0    0    0
   -2    0    1    5    9
    1
    0    0    0
   -2    0    1    5   10
    2
    0    0    0
    4    4    0
   -2    0    1    6    1
    1
    4    0    0
   -2    0    1    6    2
    2
    0    0    0
    4    0    0
   -2    0    1    6    3
    1
    0    0    0
   -2    0    1    6    4
    2
    0    0    0
    4    0    0
   -2    0    1    6    5
    1
    4    0    0
   -2    0    1    6    6
    2
    0    0    0
    4    0    0
   -2    0    1    6    7
    1
    0    0    0
   -2    0    1    6    8
    2
    0    0    0
    4    0    0
   -2    0    1    6    9
    2
    0    0    0
    4    0    0
   -2    0    1    6   10
    2
    0    0    0
    4    0    0
   -2    0    1    7    1
    1
    4    0    0
   -2    0    1    7    2
    1
    4    0    0
   -2    0    1    7    3
    1
    4    0    0
   -2    0    1    7    4
    1
    4    0    0
   -2    0    1    7    5
    1
    4    0    0
   -2    0    1    7    6
    1
    4    0    0
   -2    0    1    7    7
    2
    0    0    0
    4    0    0
   -2    0    1    7    8
    1
    4    0    0
   -2    0    1    7    9
    1
    4    0    0
   -2    0    1    7   10
    2
    4    0    0
    4    4    0
   -2    0    1    8    1
    1
    4    0    0
   -2    0    1    8    2
    2
    0    0    0
    4    0    0
   -2    0    1    8    3
    1
    0    0    0
   -2    0    1    8    4
    2
    0    0    0
    4    0    0
   -2    0    1    8    5
    1
    4    0    0
   -2    0    1    8    6
    2
    0    0    0
    4    0    0
   -2    0    1    8    7
    1
    0    0    0
   -2    0    1    8    8
    2
    0    0    0
    4    0    0
   -2    0    1    8    9
    2
    0    0    0
    4    0    0
   -2    0    1    8   10
    3
    0    0    0
    4    0    0
    4    4    0
   -2    0    1    9    1
    1
    4    0    0
   -2    0    1    9    2
    2
    0    0    0
    4    0    0
   -2    0    1    9    3
    1
    0    0    0
   -2    0    1    9    4
    2
    0    0    0
    4    0    0
   -2    0    1    9    5
    1
    4    0    0
   -2    0    1    9    6
    2
    0    0    0
    4    0    0
   -2    0    1    9    7
    1
    0    0    0
   -2    0    1    9    8
    2
    0    0    0
    4    0    0
   -2    0    1    9    9
    2
    0    0    0
    4    0    0
   -2    0    1    9   10
    2
    0    0    0
    4    0    0
   -2    0    1   10    1
    1
    4    0    0
   -2    0    1   10    2
    2
    0    0    0
    4    0    0
   -2    0    1   10    3
    1
    0    0    0
   -2    0    1   10    4
    2
    0    0    0
    4    0    0
   -2    0    1   10    5
    2
    0   -4    0
    4    0    0
   -2    0    1   10    6
    2
    0    0    0
    4    0    0
   -2    0    1   10    7
    2
    0   -4    0
    0    0    0
   -2    0    1   10    8
    3
    0   -4    0
    0    0    0
    4    0    0
   -2    0    1   10    9
    2
    0    0    0
    4    0    0
   -2    0    1   10   10
    2
    0    0    0
    4    0    0
   -2    0    2    1    1
    4
    0    0   -4
    0    0    0
    4    0   -4
    4    0    0
   -2    0    2    1    2
    2
    0    0   -4
    0    0    0
   -2    0    2    1    3
    2
    0    0   -4
    0    0    0
   -2    0    2    1    4
    2
    0    0   -4
    0    0    0
   -2    0    2    1    5
    1
    4    0    0
   -2    0    2    1    6
    1
    0    0    0
   -2    0    2    1    7
    1
    0    0    0
   -2    0    2    1    8
    1
    0    0    0
   -2    0    2    1    9
    1
    0    0    0
   -2    0    2    1   10
    2
    0    0   -4
    0    0    0
   -2    0    2    2    1
    2
    4    0   -4
    4    0    0
   -2    0    2    2    2
    4
    0    0   -4
    0    0    0
    4    0   -4
    4    0    0
   -2    0    2    2    3
    2
    0    0   -4
    0    0    0
   -2    0    2    2    4
    4
    0    0   -4
    0    0    0
    4    0   -4
    4    0    0
   -2    0    2    2    5
    1
    4    0    0
   -2    0    2    2    6
    2
    0    0    0
    4    0    0
   -2    0    2    2    7
    1
    0    0    0
   -2    0    2    2    8
    2
    0    0    0
    4    0    0
   -2    0    2    2    9
    2
    0    0    0
    4    0    0
   -2    0    2    2   10
    4
    0    0   -4
    0    0    0
    4    0   -4
    4    0    0
   -2    0    2    3    1
    2
    4    0   -4
    4    0    0
   -2    0    2    3    2
    2
    4    0   -4
    4    0    0
   -2    0    2    3    3
    4
    0    0   -4
    0    0    0
    4    0   -4
    4    0    0
   -2    0    2    3    4
    2
    4    0   -4
    4    0    0
   -2    0    2    3    5
    1
    4    0    0
   -2    0    2    3    6
    1
    4    0    0
   -2    0    2    3    7
    1
    0    0    0
   -2    0    2    3    8
    1
    4    0    0
   -2    0    2    3    9
    1
    4    0    0
   -2    0    2    3   10
    2
    4    0   -4
    4    0    0
   -2    0    2    4    1
    2
    4    0   -4
    4    0    0
   -2    0    2    4    2
    4
    0    0   -4
    0    0    0
    4    0   -4
    4    0    0
   -2    0    2    4    3
    2
    0    0   -4
    0    0    0
   -2    0    2    4    4
    4
    0    0   -4
    0    0    0
    4    0   -4
    4    0    0
   -2    0    2    4    5
    1
    4    0    0
   -2    0    2    4    6
    2
    0    0    0
    4    0    0
   -2    0    2    4    7
    1
    0    0    0
   -2    0    2    4    8
    2
    0    0    0
    4    0    0
   -2    0    2    4    9
[...]
    1
    0    0    0
    2    2   -1    4    1
    2
   -4   -4    0
    0    0    0
    2    2   -1    4    2
    1
    0    0    0
    2    2   -1    4    3
    1
   -4   -4    0
    2    2   -1    4    4
    2
   -4   -4    0
    0    0    0
    2    2   -1    4    5
    1
   -4   -4    0
    2    2   -1    4    6
    1
   -4   -4    0
    2    2   -1    4    7
    1
   -4   -4    0
    2    2   -1    4    8
    1
   -4   -4    0
    2    2   -1    4    9
    2
   -4   -4    0
    0    0    0
    2    2   -1    4   10
    1
    0    0    0
    2    2   -1    5    1
    1
    0    0    0
    2    2   -1    5    2
    1
    0    0    0
    2    2   -1    5    3
    1
    0    0    0
    2    2   -1    5    4
    1
    0    0    0
    2    2   -1    5    5
    2
   -4   -4    0
    0    0    0
    2    2   -1    5    6
    1
    0    0    0
    2    2   -1    5    7
    1
   -4   -4    0
    2    2   -1    5    8
    2
   -4   -4    0
    0    0    0
    2    2   -1    5    9
    1
    0    0    0
    2    2   -1    5   10
    1
    0    0    0
    2    2   -1    6    1
    1
    0    0    0
    2    2   -1    6    2
    1
    0    0    0
    2    2   -1    6    3
    2
   -4   -4    0
    0    0    0
    2    2   -1    6    4
    1
    0    0    0
    2    2   -1    6    5
    1
   -4   -4    0
    2    2   -1    6    6
    2
   -4   -4    0
    0    0    0
    2    2   -1    6    7
    1
   -4   -4    0
    2    2   -1    6    8
    1
   -4   -4    0
    2    2   -1    6    9
    1
    0    0    0
    2    2   -1    6   10
    1
    0    0    0
    2    2   -1    7    1
    1
    0    0    0
    2    2   -1    7    2
    1
    0    0    0
    2    2   -1    7    3
    1
    0    0    0
    2    2   -1    7    4
    1
    0    0    0
    2    2   -1    7    5
    1
    0    0    0
    2    2   -1    7    6
    1
    0    0    0
    2    2   -1    7    7
    2
   -4   -4    0
    0    0    0
    2    2   -1    7    8
    1
    0    0    0
    2    2   -1    7    9
    1
    0    0    0
    2    2   -1    7   10
    1
    0    0    0
    2    2   -1    8    1
    1
    0    0    0
    2    2   -1    8    2
    1
    0    0    0
    2    2   -1    8    3
    1
    0    0    0
    2    2   -1    8    4
    1
    0    0    0
    2    2   -1    8    5
    2
   -4   -4    0
    0    0    0
    2    2   -1    8    6
    1
    0    0    0
    2    2   -1    8    7
    1
   -4   -4    0
    2    2   -1    8    8
    2
   -4   -4    0
    0    0    0
    2    2   -1    8    9
    1
    0    0    0
    2    2   -1    8   10
    1
    0    0    0
    2    2   -1    9    1
    2
   -4   -4    0
    0    0    0
    2    2   -1    9    2
    1
    0    0    0
    2    2   -1    9    3
    1
   -4   -4    0
    2    2   -1    9    4
    2
   -4   -4    0
    0    0    0
    2    2   -1    9    5
    1
   -4   -4    0
    2    2   -1    9    6
    1
   -4   -4    0
    2    2   -1    9    7
    1
   -4   -4    0
    2    2   -1    9    8
    1
   -4   -4    0
    2    2   -1    9    9
    2
   -4   -4    0
    0    0    0
    2    2   -1    9   10
    1
    0    0    0
    2    2   -1   10    1
    1
   -4   -4    0
    2    2   -1   10    2
    1
   -4   -4    0
    2    2   -1   10    3
    1
   -4   -4    0
    2    2   -1   10    4
    1
   -4   -4    0
    2    2   -1   10    5
    1
   -4   -4    0
    2    2   -1   10    6
    1
   -4   -4    0
    2    2   -1   10    7
    1
   -4   -4    0
    2    2   -1   10    8
    1
   -4   -4    0
    2    2   -1   10    9
    1
   -4   -4    0
    2    2   -1   10   10
    2
   -4   -4    0
    0    0    0
    2    2    0    1    1
    2
   -4   -4    0
    0    0    0
    2    2    0    1    2
    1
    0    0    0
    2    2    0    1    3
    1
   -4   -4    0
    2    2    0    1    4
    2
   -4   -4    0
    0    0    0
    2    2    0    1    5
    1
   -4   -4    0
    2    2    0    1    6
    1
   -4   -4    0
    2    2    0    1    7
    1
   -4   -4    0
    2    2    0    1    8
    1
   -4   -4    0
    2    2    0    1    9
    2
   -4   -4    0
    0    0    0
    2    2    0    1   10
    1
    0    0    0
    2    2    0    2    1
    1
   -4   -4    0
    2    2    0    2    2
    2
   -4   -4    0
    0    0    0
    2    2    0    2    3
    1
   -4   -4    0
    2    2    0    2    4
    1
   -4   -4    0
    2    2    0    2    5
    1
   -4   -4    0
    2    2    0    2    6
    1
   -4   -4    0
    2    2    0    2    7
    1
   -4   -4    0
    2    2    0    2    8
    1
   -4   -4    0
    2    2    0    2    9
    1
   -4   -4    0
    2    2    0    2   10
    1
    0    0    0
    2    2    0    3    1
    1
    0    0    0
    2    2    0    3    2
    1
    0    0    0
    2    2    0    3    3
    2
   -4   -4    0
    0    0    0
    2    2    0    3    4
    1
    0    0    0
    2    2    0    3    5
    1
   -4   -4    0
    2    2    0    3    6
    2
   -4   -4    0
    0    0    0
    2    2    0    3    7
    1
   -4   -4    0
    2    2    0    3    8
    1
   -4   -4    0
    2    2    0    3    9
    1
    0    0    0
    2    2    0    3   10
    1
    0    0    0
    2    2    0    4    1
    2
   -4   -4    0
    0    0    0
    2    2    0    4    2
    1
    0    0    0
    2    2    0    4    3
    1
   -4   -4    0
    2    2    0    4    4
    2
   -4   -4    0
    0    0    0
    2    2    0    4    5
    1
   -4   -4    0
    2    2    0    4    6
    1
   -4   -4    0
    2    2    0    4    7
    1
   -4   -4    0
    2    2    0    4    8
    1
   -4   -4    0
    2    2    0    4    9
    2
   -4   -4    0
    0    0    0
    2    2    0    4   10
    1
    0    0    0
    2    2    0    5    1
    1
    0    0    0
    2    2    0    5    2
    1
    0    0    0
    2    2    0    5    3
    1
    0    0    0
    2    2    0    5    4
    1
    0    0    0
    2    2    0    5    5
    2
   -4   -4    0
    0    0    0
    2    2    0    5    6
    1
    0    0    0
    2    2    0    5    7
    1
   -4   -4    0
    2    2    0    5    8
    2
   -4   -4    0
    0    0    0
    2    2    0    5    9
    1
    0    0    0
    2    2    0    5   10
    1
    0    0    0
    2    2    0    6    1
    1
    0    0    0
    2    2    0    6    2
    1
    0    0    0
    2    2    0    6    3
    2
   -4   -4    0
    0    0    0
    2    2    0    6    4
    1
    0    0    0
    2    2    0    6    5
    1
   -4   -4    0
    2    2    0    6    6
    2
   -4   -4    0
    0    0    0
    2    2    0    6    7
    1
   -4   -4    0
    2    2    0    6    8
    1
   -4   -4    0
    2    2    0    6    9
    1
    0    0    0
    2    2    0    6   10
    1
    0    0    0
    2    2    0    7    1
    1
    0    0    0
    2    2    0    7    2
    1
    0    0    0
    2    2    0    7    3
    1
    0    0    0
    2    2    0    7    4
    1
    0    0    0
    2    2    0    7    5
    1
    0    0    0
    2    2    0    7    6
    1
    0    0    0
    2    2    0    7    7
    2
   -4   -4    0
    0    0    0
    2    2    0    7    8
    1
    0    0    0
    2    2    0    7    9
    1
    0    0    0
    2    2    0    7   10
    1
    0    0    0
    2    2    0    8    1
    1
    0    0    0
    2    2    0    8    2
    1
    0    0    0
    2    2    0    8    3
    1
    0    0    0
    2    2    0    8    4
    1
    0    0    0
    2    2    0    8    5
    2
   -4   -4    0
    0    0    0
    2    2    0    8    6
    1
    0    0    0
    2    2    0    8    7
    1
   -4   -4    0
    2    2    0    8    8
    2
   -4   -4    0
    0    0    0
    2    2    0    8    9
    1
    0    0    0
    2    2    0    8   10
    1
    0    0    0
    2    2    0    9    1
    2
   -4   -4    0
    0    0    0
    2    2    0    9    2
    1
    0    0    0
    2    2    0    9    3
    1
   -4   -4    0
    2    2    0    9    4
    2
   -4   -4    0
    0    0    0
    2    2    0    9    5
    1
   -4   -4    0
    2    2    0    9    6
    1
   -4   -4    0
    2    2    0    9    7
    1
   -4   -4    0
    2    2    0    9    8
    1
   -4   -4    0
    2    2    0    9    9
    2
   -4   -4    0
    0    0    0
    2    2    0    9   10
    1
    0    0    0
    2    2    0   10    1
    1
   -4   -4    0
    2    2    0   10    2
    1
   -4   -4    0
    2    2    0   10    3
    1
   -4   -4    0
    2    2    0   10    4
    1
   -4   -4    0
    2    2    0   10    5
    1
   -4   -4    0
    2    2    0   10    6
    1
   -4   -4    0
    2    2    0   10    7
    1
   -4   -4    0
    2    2    0   10    8
    1
   -4   -4    0
    2    2    0   10    9
    1
   -4   -4    0
    2    2    0   10   10
    2
   -4   -4    0
    0    0    0
    2    2    1    1    1
    2
   -4   -4    0
    0    0    0
    2    2    1    1    2
    1
    0    0    0
    2    2    1    1    3
    1
   -4   -4    0
    2    2    1    1    4
    2
   -4   -4    0
    0    0    0
    2    2    1    1    5
    1
   -4   -4    0
    2    2    1    1    6
    1
   -4   -4    0
    2    2    1    1    7
    1
   -4   -4    0
    2    2    1    1    8
    1
   -4   -4    0
    2    2    1    1    9
    2
   -4   -4    0
    0    0    0
    2    2    1    1   10
    1
    0    0    0
    2    2    1    2    1
    1
   -4   -4    0
    2    2    1    2    2
    2
   -4   -4    0
    0    0    0
    2    2    1    2    3
    1
   -4   -4    0
    2    2    1    2    4
    1
   -4   -4    0
    2    2    1    2    5
    1
   -4   -4    0
    2    2    1    2    6
    1
   -4   -4    0
    2    2    1    2    7
    1
   -4   -4    0
    2    2    1    2    8
    1
   -4   -4    0
    2    2    1    2    9
    1
   -4   -4    0
    2    2    1    2   10
    1
    0    0    0
    2    2    1    3    1
    1
    0    0    0
    2    2    1    3    2
    1
    0    0    0
    2    2    1    3    3
    2
   -4   -4    0
    0    0    0
    2    2    1    3    4
    1
    0    0    0
    2    2    1    3    5
    1
   -4   -4    0
    2    2    1    3    6
    2
   -4   -4    0
    0    0    0
    2    2    1    3    7
    1
   -4   -4    0
    2    2    1    3    8
    1
   -4   -4    0
    2    2    1    3    9
    1
    0    0    0
    2    2    1    3   10
    1
    0    0    0
    2    2    1    4    1
    2
   -4   -4    0
    0    0    0
    2    2    1    4    2
    1
    0    0    0
    2    2    1    4    3
    1
   -4   -4    0
    2    2    1    4    4
    2
   -4   -4    0
    0    0    0
    2    2    1    4    5
    1
   -4   -4    0
    2    2    1    4    6
    1
   -4   -4    0
    2    2    1    4    7
    1
   -4   -4    0
    2    2    1    4    8
    1
   -4   -4    0
    2    2    1    4    9
    2
   -4   -4    0
    0    0    0
    2    2    1    4   10
    1
    0    0    0
    2    2    1    5    1
    1
    0    0    0
    2    2    1    5    2
    1
    0    0    0
    2    2    1    5    3
    1
    0    0    0
    2    2    1    5    4
    1
    0    0    0
    2    2    1    5    5
    2
   -4   -4    0
    0    0    0
    2    2    1    5    6
    1
    0    0    0
    2    2    1    5    7
    1
   -4   -4    0
    2    2    1    5    8
    2
   -4   -4    0
    0    0    0
    2    2    1    5    9
    1
    0    0    0
    2    2    1    5   10
    1
    0    0    0
    2    2    1    6    1
    1
    0    0    0
    2    2    1    6    2
    1
    0    0    0
    2    2    1    6    3
    2
   -4   -4    0
    0    0    0
    2    2    1    6    4
    1
    0    0    0
    2    2    1    6    5
    1
   -4   -4    0
    2    2    1    6    6
    2
   -4   -4    0
    0    0    0
    2    2    1    6    7
    1
   -4   -4    0
    2    2    1    6    8
    1
   -4   -4    0
    2    2    1    6    9
    1
    0    0    0
    2    2    1    6   10
    1
    0    0    0
    2    2    1    7    1
    1
    0    0    0
    2    2    1    7    2
    1
    0    0    0
    2    2    1    7    3
    1
    0    0    0
    2    2    1    7    4
    1
    0    0    0
    2    2    1    7    5
    1
    0    0    0
    2    2    1    7    6
    1
    0    0    0
    2    2    1    7    7
    2
   -4   -4    0
    0    0    0
    2    2    1    7    8
    1
    0    0    0
    2    2    1    7    9
    1
    0    0    0
    2    2    1    7   10
    1
    0    0    0
    2    2    1    8    1
    1
    0    0    0
    2    2    1    8    2
    1
    0    0    0
    2    2    1    8    3
    1
    0    0    0
    2    2    1    8    4
    1
    0    0    0
    2    2    1    8    5
    2
   -4   -4    0
    0    0    0
    2    2    1    8    6
    1
    0    0    0
    2    2    1    8    7
    1
   -4   -4    0
    2    2    1    8    8
    2
   -4   -4    0
    0    0    0
    2    2    1    8    9
    1
    0    0    0
    2    2    1    8   10
    1
    0    0    0
    2    2    1    9    1
    2
   -4   -4    0
    0    0    0
    2    2    1    9    2
    1
    0    0    0
    2    2    1    9    3
    1
   -4   -4    0
    2    2    1    9    4
    2
   -4   -4    0
    0    0    0
    2    2    1    9    5
    1
   -4   -4    0
    2    2    1    9    6
    1
   -4   -4    0
    2    2    1    9    7
    1
   -4   -4    0
    2    2    1    9    8
    1
   -4   -4    0
    2    2    1    9    9
    2
   -4   -4    0
    0    0    0
    2    2    1    9   10
    1
    0    0    0
    2    2    1   10    1
    1
   -4   -4    0
    2    2    1   10    2
    1
   -4   -4    0
    2    2    1   10    3
    1
   -4   -4    0
    2    2    1   10    4
    1
   -4   -4    0
    2    2    1   10    5
    1
   -4   -4    0
    2    2    1   10    6
    1
   -4   -4    0
    2    2    1   10    7
    1
   -4   -4    0
    2    2    1   10    8
    1
   -4   -4    0
    2    2    1   10    9
    1
   -4   -4    0
    2    2    1   10   10
    2
   -4   -4    0
    0    0    0
    2    2    2    1    1
    4
   -4   -4   -4
   -4   -4    0
    0    0   -4
    0    0    0
    2    2    2    1    2
    2
    0    0   -4
    0    0    0
    2    2    2    1    3
    2
   -4   -4   -4
   -4   -4    0
    2    2    2    1    4
    4
   -4   -4   -4
   -4   -4    0
    0    0   -4
    0    0    0
    2    2    2    1    5
    1
   -4   -4    0
    2    2    2    1    6
    1
   -4   -4    0
    2    2    2    1    7
    1
   -4   -4    0
    2    2    2    1    8
    1
   -4   -4    0
    2    2    2    1    9
    2
   -4   -4    0
    0    0    0
    2    2    2    1   10
    2
    0    0   -4
    0    0    0
    2    2    2    2    1
    2
   -4   -4   -4
   -4   -4    0
    2    2    2    2    2
    4
   -4   -4   -4
   -4   -4    0
    0    0   -4
    0    0    0
    2    2    2    2    3
    2
   -4   -4   -4
   -4   -4    0
    2    2    2    2    4
    2
   -4   -4   -4
   -4   -4    0
    2    2    2    2    5
    1
   -4   -4    0
    2    2    2    2    6
    1
   -4   -4    0
    2    2    2    2    7
    1
   -4   -4    0
    2    2    2    2    8
    1
   -4   -4    0
    2    2    2    2    9
    1
   -4   -4    0
    2    2    2    2   10
    2
    0    0   -4
    0    0    0
    2    2    2    3    1
    2
    0    0   -4
    0    0    0
    2    2    2    3    2
    2
    0    0   -4
    0    0    0
    2    2    2    3    3
    4
   -4   -4   -4
   -4   -4    0
    0    0   -4
    0    0    0
    2    2    2    3    4
    2
    0    0   -4
    0    0    0
    2    2    2    3    5
    1
   -4   -4    0
    2    2    2    3    6
    2
   -4   -4    0
    0    0    0
    2    2    2    3    7
    1
   -4   -4    0
    2    2    2    3    8
    1
   -4   -4    0
    2    2    2    3    9
    1
    0    0    0
    2    2    2    3   10
    2
    0    0   -4
    0    0    0
    2    2    2    4    1
    4
   -4   -4   -4
   -4   -4    0
    0    0   -4
    0    0    0
    2    2    2    4    2
    2
    0    0   -4
    0    0    0
    2    2    2    4    3
    2
   -4   -4   -4
   -4   -4    0
    2    2    2    4    4
    4
   -4   -4   -4
   -4   -4    0
    0    0   -4
    0    0    0
    2    2    2    4    5
    1
   -4   -4    0
    2    2    2    4    6
    1
   -4   -4    0
    2    2    2    4    7
    1
   -4   -4    0
    2    2    2    4    8
    1
   -4   -4    0
    2    2    2    4    9
    2
   -4   -4    0
    0    0    0
    2    2    2    4   10
    2
    0    0   -4
    0    0    0
    2    2    2    5    1
    1
    0    0   -4
    2    2    2    5    2
    1
    0    0   -4
    2    2    2    5    3
    1
    0    0   -4
    2    2    2    5    4
    1
    0    0   -4
    2    2    2    5    5
    4
   -4   -4   -4
   -4   -4    0
    0    0   -4
    0    0    0
    2    2    2    5    6
    2
    0    0   -4
    0    0    0
    2    2    2    5    7
    2
   -4   -4   -4
   -4   -4    0
    2    2    2    5    8
    4
   -4   -4   -4
   -4   -4    0
    0    0   -4
    0    0    0
    2    2    2    5    9
    2
    0    0   -4
    0    0    0
    2    2    2    5   10
    1
    0    0   -4
    2    2    2    6    1
    1
    0    0   -4
    2    2    2    6    2
    1
    0    0   -4
    2    2    2    6    3
    2
   -4   -4   -4
    0    0   -4
    2    2    2    6    4
    1
    0    0   -4
    2    2    2    6    5
    2
   -4   -4   -4
   -4   -4    0
    2    2    2    6    6
    4
   -4   -4   -4
   -4   -4    0
    0    0   -4
    0    0    0
    2    2    2    6    7
    2
   -4   -4   -4
   -4   -4    0
    2    2    2    6    8
    2
   -4   -4   -4
   -4   -4    0
    2    2    2    6    9
    2
    0    0   -4
    0    0    0
    2    2    2    6   10
    1
    0    0   -4
    2    2    2    7    1
    1
    0    0   -4
    2    2    2    7    2
    1
    0    0   -4
    2    2    2    7    3
    1
    0    0   -4
    2    2    2    7    4
    1
    0    0   -4
    2    2    2    7    5
    2
    0    0   -4
    0    0    0
    2    2    2    7    6
    2
    0    0   -4
    0    0    0
    2    2    2    7    7
    4
   -4   -4   -4
   -4   -4    0
    0    0   -4
    0    0    0
    2    2    2    7    8
    2
    0    0   -4
    0    0    0
    2    2    2    7    9
    2
    0    0   -4
    0    0    0
    2    2    2    7   10
    1
    0    0   -4
    2    2    2    8    1
    1
    0    0   -4
    2    2    2    8    2
    1
    0    0   -4
    2    2    2    8    3
    1
    0    0   -4
    2    2    2    8    4
    1
    0    0   -4
    2    2    2    8    5
    4
   -4   -4   -4
   -4   -4    0
    0    0   -4
    0    0    0
    2    2    2    8    6
    2
    0    0   -4
    0    0    0
    2    2    2    8    7
    2
   -4   -4   -4
   -4   -4    0
    2    2    2    8    8
    4
   -4   -4   -4
   -4   -4    0
    0    0   -4
    0    0    0
    2    2    2    8    9
    2
    0    0   -4
    0    0    0
    2    2    2    8   10
    1
    0    0   -4
    2    2    2    9    1
    2
   -4   -4   -4
    0    0   -4
    2    2    2    9    2
    1
    0    0   -4
    2    2    2    9    3
    1
   -4   -4   -4
    2    2    2    9    4
    2
   -4   -4   -4
    0    0   -4
    2    2    2    9    5
    2
   -4   -4   -4
   -4   -4    0
    2    2    2    9    6
    2
   -4   -4   -4
   -4   -4    0
    2    2    2    9    7
    2
   -4   -4   -4
   -4   -4    0
    2    2    2    9    8
    2
   -4   -4   -4
   -4   -4    0
    2    2    2    9    9
    4
   -4   -4   -4
   -4   -4    0
    0    0   -4
    0    0    0
    2    2    2    9   10
    1
    0    0   -4
    2    2    2   10    1
    2
   -4   -4   -4
   -4   -4    0
    2    2    2   10    2
    2
   -4   -4   -4
   -4   -4    0
    2    2    2   10    3
    2
   -4   -4   -4
   -4   -4    0
    2    2    2   10    4
    2
   -4   -4   -4
   -4   -4    0
    2    2    2   10    5
    1
   -4   -4    0
    2    2    2   10    6
    1
   -4   -4    0
    2    2    2   10    7
    1
   -4   -4    0
    2    2    2   10    8
    1
   -4   -4    0
    2    2    2   10    9
    1
   -4   -4    0
    2    2    2   10   10
    4
   -4   -4   -4
   -4   -4    0
    0    0   -4
    0    0    0
