File written on 26Sep2022 at 10:59:53 

calc_only_A  :  F

begin real_lattice
  -3.2398875   0.0000000   3.2398875
   0.0000000   3.2398875   3.2398875
  -3.2398875   3.2398875   0.0000000
end real_lattice

begin recip_lattice
  -0.9696610  -0.9696610   0.9696610
   0.9696610   0.9696610   0.9696610
  -0.9696610   0.9696610  -0.9696610
end recip_lattice

begin kpoints
   216
    0.00000000    0.00000000    0.00000000
    0.00000000    0.00000000    0.16666667
    0.00000000    0.00000000    0.33333333
    0.00000000    0.00000000    0.50000000
    0.00000000    0.00000000    0.66666667
    0.00000000    0.00000000    0.83333333
    0.00000000    0.16666667    0.00000000
    0.00000000    0.16666667    0.16666667
    0.00000000    0.16666667    0.33333333
    0.00000000    0.16666667    0.50000000
    0.00000000    0.16666667    0.66666667
    0.00000000    0.16666667    0.83333333
    0.00000000    0.33333333    0.00000000
    0.00000000    0.33333333    0.16666667
    0.00000000    0.33333333    0.33333333
    0.00000000    0.33333333    0.50000000
    0.00000000    0.33333333    0.66666667
    0.00000000    0.33333333    0.83333333
    0.00000000    0.50000000    0.00000000
    0.00000000    0.50000000    0.16666667
    0.00000000    0.50000000    0.33333333
    0.00000000    0.50000000    0.50000000
    0.00000000    0.50000000    0.66666667
    0.00000000    0.50000000    0.83333333
    0.00000000    0.66666667    0.00000000
    0.00000000    0.66666667    0.16666667
    0.00000000    0.66666667    0.33333333
    0.00000000    0.66666667    0.50000000
    0.00000000    0.66666667    0.66666667
    0.00000000    0.66666667    0.83333333
    0.00000000    0.83333333    0.00000000
    0.00000000    0.83333333    0.16666667
    0.00000000    0.83333333    0.33333333
    0.00000000    0.83333333    0.50000000
    0.00000000    0.83333333    0.66666667
    0.00000000    0.83333333    0.83333333
    0.16666667    0.00000000    0.00000000
    0.16666667    0.00000000    0.16666667
    0.16666667    0.00000000    0.33333333
    0.16666667    0.00000000    0.50000000
    0.16666667    0.00000000    0.66666667
    0.16666667    0.00000000    0.83333333
    0.16666667    0.16666667    0.00000000
    0.16666667    0.16666667    0.16666667
    0.16666667    0.16666667    0.33333333
    0.16666667    0.16666667    0.50000000
    0.16666667    0.16666667    0.66666667
    0.16666667    0.16666667    0.83333333
    0.16666667    0.33333333    0.00000000
    0.16666667    0.33333333    0.16666667
    0.16666667    0.33333333    0.33333333
    0.16666667    0.33333333    0.50000000
    0.16666667    0.33333333    0.66666667
    0.16666667    0.33333333    0.83333333
    0.16666667    0.50000000    0.00000000
    0.16666667    0.50000000    0.16666667
    0.16666667    0.50000000    0.33333333
    0.16666667    0.50000000    0.50000000
    0.16666667    0.50000000    0.66666667
    0.16666667    0.50000000    0.83333333
    0.16666667    0.66666667    0.00000000
    0.16666667    0.66666667    0.16666667
    0.16666667    0.66666667    0.33333333
    0.16666667    0.66666667    0.50000000
    0.16666667    0.66666667    0.66666667
    0.16666667    0.66666667    0.83333333
    0.16666667    0.83333333    0.00000000
    0.16666667    0.83333333    0.16666667
    0.16666667    0.83333333    0.33333333
    0.16666667    0.83333333    0.50000000
    0.16666667    0.83333333    0.66666667
    0.16666667    0.83333333    0.83333333
    0.33333333    0.00000000    0.00000000
    0.33333333    0.00000000    0.16666667
    0.33333333    0.00000000    0.33333333
    0.33333333    0.00000000    0.50000000
    0.33333333    0.00000000    0.66666667
    0.33333333    0.00000000    0.83333333
    0.33333333    0.16666667    0.00000000
    0.33333333    0.16666667    0.16666667
    0.33333333    0.16666667    0.33333333
    0.33333333    0.16666667    0.50000000
    0.33333333    0.16666667    0.66666667
    0.33333333    0.16666667    0.83333333
    0.33333333    0.33333333    0.00000000
    0.33333333    0.33333333    0.16666667
    0.33333333    0.33333333    0.33333333
    0.33333333    0.33333333    0.50000000
    0.33333333    0.33333333    0.66666667
    0.33333333    0.33333333    0.83333333
    0.33333333    0.50000000    0.00000000
    0.33333333    0.50000000    0.16666667
    0.33333333    0.50000000    0.33333333
    0.33333333    0.50000000    0.50000000
    0.33333333    0.50000000    0.66666667
    0.33333333    0.50000000    0.83333333
    0.33333333    0.66666667    0.00000000
    0.33333333    0.66666667    0.16666667
    0.33333333    0.66666667    0.33333333
    0.33333333    0.66666667    0.50000000
    0.33333333    0.66666667    0.66666667
    0.33333333    0.66666667    0.83333333
    0.33333333    0.83333333    0.00000000
    0.33333333    0.83333333    0.16666667
    0.33333333    0.83333333    0.33333333
    0.33333333    0.83333333    0.50000000
    0.33333333    0.83333333    0.66666667
    0.33333333    0.83333333    0.83333333
    0.50000000    0.00000000    0.00000000
    0.50000000    0.00000000    0.16666667
    0.50000000    0.00000000    0.33333333
    0.50000000    0.00000000    0.50000000
    0.50000000    0.00000000    0.66666667
    0.50000000    0.00000000    0.83333333
    0.50000000    0.16666667    0.00000000
    0.50000000    0.16666667    0.16666667
    0.50000000    0.16666667    0.33333333
    0.50000000    0.16666667    0.50000000
    0.50000000    0.16666667    0.66666667
    0.50000000    0.16666667    0.83333333
    0.50000000    0.33333333    0.00000000
    0.50000000    0.33333333    0.16666667
    0.50000000    0.33333333    0.33333333
    0.50000000    0.33333333    0.50000000
    0.50000000    0.33333333    0.66666667
    0.50000000    0.33333333    0.83333333
    0.50000000    0.50000000    0.00000000
    0.50000000    0.50000000    0.16666667
    0.50000000    0.50000000    0.33333333
    0.50000000    0.50000000    0.50000000
    0.50000000    0.50000000    0.66666667
    0.50000000    0.50000000    0.83333333
    0.50000000    0.66666667    0.00000000
    0.50000000    0.66666667    0.16666667
    0.50000000    0.66666667    0.33333333
    0.50000000    0.66666667    0.50000000
    0.50000000    0.66666667    0.66666667
    0.50000000    0.66666667    0.83333333
    0.50000000    0.83333333    0.00000000
    0.50000000    0.83333333    0.16666667
    0.50000000    0.83333333    0.33333333
    0.50000000    0.83333333    0.50000000
    0.50000000    0.83333333    0.66666667
    0.50000000    0.83333333    0.83333333
    0.66666667    0.00000000    0.00000000
    0.66666667    0.00000000    0.16666667
    0.66666667    0.00000000    0.33333333
    0.66666667    0.00000000    0.50000000
    0.66666667    0.00000000    0.66666667
    0.66666667    0.00000000    0.83333333
    0.66666667    0.16666667    0.00000000
    0.66666667    0.16666667    0.16666667
    0.66666667    0.16666667    0.33333333
    0.66666667    0.16666667    0.50000000
    0.66666667    0.16666667    0.66666667
    0.66666667    0.16666667    0.83333333
    0.66666667    0.33333333    0.00000000
    0.66666667    0.33333333    0.16666667
    0.66666667    0.33333333    0.33333333
    0.66666667    0.33333333    0.50000000
    0.66666667    0.33333333    0.66666667
    0.66666667    0.33333333    0.83333333
    0.66666667    0.50000000    0.00000000
    0.66666667    0.50000000    0.16666667
    0.66666667    0.50000000    0.33333333
    0.66666667    0.50000000    0.50000000
    0.66666667    0.50000000    0.66666667
    0.66666667    0.50000000    0.83333333
    0.66666667    0.66666667    0.00000000
    0.66666667    0.66666667    0.16666667
    0.66666667    0.66666667    0.33333333
    0.66666667    0.66666667    0.50000000
    0.66666667    0.66666667    0.66666667
    0.66666667    0.66666667    0.83333333
    0.66666667    0.83333333    0.00000000
    0.66666667    0.83333333    0.16666667
    0.66666667    0.83333333    0.33333333
    0.66666667    0.83333333    0.50000000
    0.66666667    0.83333333    0.66666667
    0.66666667    0.83333333    0.83333333
    0.83333333    0.00000000    0.00000000
    0.83333333    0.00000000    0.16666667
    0.83333333    0.00000000    0.33333333
    0.83333333    0.00000000    0.50000000
    0.83333333    0.00000000    0.66666667
    0.83333333    0.00000000    0.83333333
    0.83333333    0.16666667    0.00000000
    0.83333333    0.16666667    0.16666667
    0.83333333    0.16666667    0.33333333
    0.83333333    0.16666667    0.50000000
    0.83333333    0.16666667    0.66666667
    0.83333333    0.16666667    0.83333333
    0.83333333    0.33333333    0.00000000
    0.83333333    0.33333333    0.16666667
    0.83333333    0.33333333    0.33333333
    0.83333333    0.33333333    0.50000000
    0.83333333    0.33333333    0.66666667
    0.83333333    0.33333333    0.83333333
    0.83333333    0.50000000    0.00000000
    0.83333333    0.50000000    0.16666667
    0.83333333    0.50000000    0.33333333
    0.83333333    0.50000000    0.50000000
    0.83333333    0.50000000    0.66666667
    0.83333333    0.50000000    0.83333333
    0.83333333    0.66666667    0.00000000
    0.83333333    0.66666667    0.16666667
    0.83333333    0.66666667    0.33333333
    0.83333333    0.66666667    0.50000000
    0.83333333    0.66666667    0.66666667
    0.83333333    0.66666667    0.83333333
    0.83333333    0.83333333    0.00000000
    0.83333333    0.83333333    0.16666667
    0.83333333    0.83333333    0.33333333
    0.83333333    0.83333333    0.50000000
    0.83333333    0.83333333    0.66666667
    0.83333333    0.83333333    0.83333333
end kpoints

begin projections
     0
end projections

begin auto_projections
     8
     0
end auto_projections

begin nnkpts
   8
     1     2      0   0   0
     1     7      0   0   0
     1    37      0   0   0
     1    44      0   0   0
     1     6      0   0  -1
     1    31      0  -1   0
     1   181     -1   0   0
     1   216     -1  -1  -1
     2     1      0   0   0
     2     3      0   0   0
     2     8      0   0   0
     2    38      0   0   0
     2    45      0   0   0
     2    32      0  -1   0
     2   182     -1   0   0
     2   211     -1  -1   0
     3     2      0   0   0
     3     4      0   0   0
     3     9      0   0   0
     3    39      0   0   0
     3    46      0   0   0
     3    33      0  -1   0
     3   183     -1   0   0
     3   212     -1  -1   0
     4     3      0   0   0
     4     5      0   0   0
     4    10      0   0   0
     4    40      0   0   0
     4    47      0   0   0
     4    34      0  -1   0
     4   184     -1   0   0
     4   213     -1  -1   0
     5     4      0   0   0
     5     6      0   0   0
     5    11      0   0   0
     5    41      0   0   0
     5    48      0   0   0
     5    35      0  -1   0
     5   185     -1   0   0
     5   214     -1  -1   0
     6     5      0   0   0
     6    12      0   0   0
     6    42      0   0   0
     6     1      0   0   1
     6    43      0   0   1
     6    36      0  -1   0
     6   186     -1   0   0
     6   215     -1  -1   0
     7     1      0   0   0
     7     8      0   0   0
     7    13      0   0   0
     7    43      0   0   0
     7    50      0   0   0
     7    12      0   0  -1
     7   187     -1   0   0
     7   186     -1   0  -1
     8     2      0   0   0
     8     7      0   0   0
     8     9      0   0   0
     8    14      0   0   0
     8    44      0   0   0
     8    51      0   0   0
     8   181     -1   0   0
     8   188     -1   0   0
     9     3      0   0   0
     9     8      0   0   0
     9    10      0   0   0
     9    15      0   0   0
     9    45      0   0   0
     9    52      0   0   0
     9   182     -1   0   0
     9   189     -1   0   0
    10     4      0   0   0
    10     9      0   0   0
    10    11      0   0   0
    10    16      0   0   0
    10    46      0   0   0
    10    53      0   0   0
    10   183     -1   0   0
    10   190     -1   0   0
    11     5      0   0   0
    11    10      0   0   0
    11    12      0   0   0
    11    17      0   0   0
    11    47      0   0   0
    11    54      0   0   0
    11   184     -1   0   0
    11   191     -1   0   0
    12     6      0   0   0
    12    11      0   0   0
    12    18      0   0   0
    12    48      0   0   0
    12     7      0   0   1
    12    49      0   0   1
    12   185     -1   0   0
    12   192     -1   0   0
    13     7      0   0   0
    13    14      0   0   0
    13    19      0   0   0
    13    49      0   0   0
    13    56      0   0   0
    13    18      0   0  -1
    13   193     -1   0   0
    13   192     -1   0  -1
    14     8      0   0   0
    14    13      0   0   0
    14    15      0   0   0
    14    20      0   0   0
    14    50      0   0   0
    14    57      0   0   0
    14   187     -1   0   0
    14   194     -1   0   0
    15     9      0   0   0
    15    14      0   0   0
    15    16      0   0   0
    15    21      0   0   0
    15    51      0   0   0
    15    58      0   0   0
    15   188     -1   0   0
    15   195     -1   0   0
    16    10      0   0   0
    16    15      0   0   0
    16    17      0   0   0
    16    22      0   0   0
    16    52      0   0   0
    16    59      0   0   0
    16   189     -1   0   0
    16   196     -1   0   0
    17    11      0   0   0
    17    16      0   0   0
    17    18      0   0   0
    17    23      0   0   0
    17    53      0   0   0
    17    60      0   0   0
    17   190     -1   0   0
    17   197     -1   0   0
    18    12      0   0   0
    18    17      0   0   0
    18    24      0   0   0
    18    54      0   0   0
    18    13      0   0   1
    18    55      0   0   1
    18   191     -1   0   0
    18   198     -1   0   0
    19    13      0   0   0
    19    20      0   0   0
    19    25      0   0   0
    19    55      0   0   0
    19    62      0   0   0
    19    24      0   0  -1
    19   199     -1   0   0
    19   198     -1   0  -1
    20    14      0   0   0
    20    19      0   0   0
    20    21      0   0   0
    20    26      0   0   0
    20    56      0   0   0
    20    63      0   0   0
    20   193     -1   0   0
    20   200     -1   0   0
    21    15      0   0   0
    21    20      0   0   0
    21    22      0   0   0
    21    27      0   0   0
    21    57      0   0   0
    21    64      0   0   0
    21   194     -1   0   0
    21   201     -1   0   0
    22    16      0   0   0
    22    21      0   0   0
    22    23      0   0   0
    22    28      0   0   0
    22    58      0   0   0
    22    65      0   0   0
    22   195     -1   0   0
    22   202     -1   0   0
    23    17      0   0   0
    23    22      0   0   0
    23    24      0   0   0
    23    29      0   0   0
    23    59      0   0   0
    23    66      0   0   0
    23   196     -1   0   0
    23   203     -1   0   0
    24    18      0   0   0
    24    23      0   0   0
    24    30      0   0   0
    24    60      0   0   0
    24    19      0   0   1
    24    61      0   0   1
    24   197     -1   0   0
    24   204     -1   0   0
    25    19      0   0   0
    25    26      0   0   0
    25    31      0   0   0
    25    61      0   0   0
    25    68      0   0   0
    25    30      0   0  -1
    25   205     -1   0   0
    25   204     -1   0  -1
    26    20      0   0   0
    26    25      0   0   0
    26    27      0   0   0
    26    32      0   0   0
    26    62      0   0   0
    26    69      0   0   0
    26   199     -1   0   0
    26   206     -1   0   0
    27    21      0   0   0
    27    26      0   0   0
    27    28      0   0   0
    27    33      0   0   0
    27    63      0   0   0
    27    70      0   0   0
    27   200     -1   0   0
    27   207     -1   0   0
    28    22      0   0   0
    28    27      0   0   0
    28    29      0   0   0
    28    34      0   0   0
    28    64      0   0   0
    28    71      0   0   0
    28   201     -1   0   0
    28   208     -1   0   0
    29    23      0   0   0
    29    28      0   0   0
    29    30      0   0   0
    29    35      0   0   0
    29    65      0   0   0
    29    72      0   0   0
    29   202     -1   0   0
    29   209     -1   0   0
    30    24      0   0   0
    30    29      0   0   0
    30    36      0   0   0
    30    66      0   0   0
    30    25      0   0   1
    30    67      0   0   1
    30   203     -1   0   0
    30   210     -1   0   0
    31    25      0   0   0
    31    32      0   0   0
    31    67      0   0   0
    31     1      0   1   0
    31    38      0   1   0
    31    36      0   0  -1
    31   211     -1   0   0
    31   210     -1   0  -1
    32    26      0   0   0
    32    31      0   0   0
    32    33      0   0   0
    32    68      0   0   0
    32     2      0   1   0
    32    39      0   1   0
    32   205     -1   0   0
    32   212     -1   0   0
    33    27      0   0   0
    33    32      0   0   0
    33    34      0   0   0
    33    69      0   0   0
    33     3      0   1   0
    33    40      0   1   0
    33   206     -1   0   0
    33   213     -1   0   0
    34    28      0   0   0
    34    33      0   0   0
    34    35      0   0   0
    34    70      0   0   0
    34     4      0   1   0
    34    41      0   1   0
    34   207     -1   0   0
    34   214     -1   0   0
    35    29      0   0   0
    35    34      0   0   0
    35    36      0   0   0
    35    71      0   0   0
    35     5      0   1   0
    35    42      0   1   0
    35   208     -1   0   0
    35   215     -1   0   0
    36    30      0   0   0
    36    35      0   0   0
    36    72      0   0   0
    36     6      0   1   0
    36    31      0   0   1
    36   209     -1   0   0
    36   216     -1   0   0
    36    37      0   1   1
    37     1      0   0   0
    37    38      0   0   0
    37    43      0   0   0
    37    73      0   0   0
    37    80      0   0   0
    37    42      0   0  -1
    37    67      0  -1   0
    37    36      0  -1  -1
    38     2      0   0   0
    38    37      0   0   0
    38    39      0   0   0
    38    44      0   0   0
    38    74      0   0   0
    38    81      0   0   0
    38    31      0  -1   0
    38    68      0  -1   0
    39     3      0   0   0
    39    38      0   0   0
    39    40      0   0   0
    39    45      0   0   0
    39    75      0   0   0
    39    82      0   0   0
    39    32      0  -1   0
    39    69      0  -1   0
    40     4      0   0   0
    40    39      0   0   0
    40    41      0   0   0
    40    46      0   0   0
    40    76      0   0   0
    40    83      0   0   0
    40    33      0  -1   0
    40    70      0  -1   0
    41     5      0   0   0
    41    40      0   0   0
    41    42      0   0   0
    41    47      0   0   0
    41    77      0   0   0
    41    84      0   0   0
    41    34      0  -1   0
    41    71      0  -1   0
    42     6      0   0   0
    42    41      0   0   0
    42    48      0   0   0
    42    78      0   0   0
    42    37      0   0   1
    42    79      0   0   1
    42    35      0  -1   0
    42    72      0  -1   0
    43     7      0   0   0
    43    37      0   0   0
    43    44      0   0   0
    43    49      0   0   0
    43    79      0   0   0
    43    86      0   0   0
    43     6      0   0  -1
    43    48      0   0  -1
    44     1      0   0   0
    44     8      0   0   0
    44    38      0   0   0
    44    43      0   0   0
    44    45      0   0   0
    44    50      0   0   0
    44    80      0   0   0
    44    87      0   0   0
    45     2      0   0   0
    45     9      0   0   0
    45    39      0   0   0
    45    44      0   0   0
    45    46      0   0   0
    45    51      0   0   0
    45    81      0   0   0
    45    88      0   0   0
    46     3      0   0   0
    46    10      0   0   0
    46    40      0   0   0
    46    45      0   0   0
    46    47      0   0   0
    46    52      0   0   0
    46    82      0   0   0
    46    89      0   0   0
    47     4      0   0   0
    47    11      0   0   0
    47    41      0   0   0
    47    46      0   0   0
    47    48      0   0   0
    47    53      0   0   0
    47    83      0   0   0
    47    90      0   0   0
    48     5      0   0   0
    48    12      0   0   0
    48    42      0   0   0
    48    47      0   0   0
    48    54      0   0   0
    48    84      0   0   0
    48    43      0   0   1
    48    85      0   0   1
    49    13      0   0   0
    49    43      0   0   0
    49    50      0   0   0
    49    55      0   0   0
    49    85      0   0   0
    49    92      0   0   0
    49    12      0   0  -1
    49    54      0   0  -1
    50     7      0   0   0
    50    14      0   0   0
    50    44      0   0   0
    50    49      0   0   0
    50    51      0   0   0
    50    56      0   0   0
    50    86      0   0   0
    50    93      0   0   0
    51     8      0   0   0
    51    15      0   0   0
    51    45      0   0   0
    51    50      0   0   0
    51    52      0   0   0
    51    57      0   0   0
    51    87      0   0   0
    51    94      0   0   0
    52     9      0   0   0
    52    16      0   0   0
    52    46      0   0   0
    52    51      0   0   0
    52    53      0   0   0
    52    58      0   0   0
    52    88      0   0   0
    52    95      0   0   0
    53    10      0   0   0
    53    17      0   0   0
    53    47      0   0   0
    53    52      0   0   0
    53    54      0   0   0
    53    59      0   0   0
    53    89      0   0   0
    53    96      0   0   0
    54    11      0   0   0
    54    18      0   0   0
    54    48      0   0   0
    54    53      0   0   0
    54    60      0   0   0
    54    90      0   0   0
    54    49      0   0   1
    54    91      0   0   1
    55    19      0   0   0
    55    49      0   0   0
    55    56      0   0   0
    55    61      0   0   0
    55    91      0   0   0
    55    98      0   0   0
    55    18      0   0  -1
    55    60      0   0  -1
    56    13      0   0   0
    56    20      0   0   0
    56    50      0   0   0
    56    55      0   0   0
    56    57      0   0   0
    56    62      0   0   0
    56    92      0   0   0
    56    99      0   0   0
    57    14      0   0   0
    57    21      0   0   0
    57    51      0   0   0
    57    56      0   0   0
    57    58      0   0   0
    57    63      0   0   0
    57    93      0   0   0
    57   100      0   0   0
    58    15      0   0   0
    58    22      0   0   0
    58    52      0   0   0
    58    57      0   0   0
    58    59      0   0   0
    58    64      0   0   0
    58    94      0   0   0
    58   101      0   0   0
    59    16      0   0   0
    59    23      0   0   0
    59    53      0   0   0
    59    58      0   0   0
    59    60      0   0   0
    59    65      0   0   0
    59    95      0   0   0
    59   102      0   0   0
    60    17      0   0   0
    60    24      0   0   0
    60    54      0   0   0
    60    59      0   0   0
    60    66      0   0   0
    60    96      0   0   0
    60    55      0   0   1
    60    97      0   0   1
    61    25      0   0   0
    61    55      0   0   0
    61    62      0   0   0
    61    67      0   0   0
    61    97      0   0   0
    61   104      0   0   0
    61    24      0   0  -1
    61    66      0   0  -1
    62    19      0   0   0
    62    26      0   0   0
    62    56      0   0   0
    62    61      0   0   0
    62    63      0   0   0
    62    68      0   0   0
    62    98      0   0   0
    62   105      0   0   0
    63    20      0   0   0
    63    27      0   0   0
    63    57      0   0   0
    63    62      0   0   0
    63    64      0   0   0
    63    69      0   0   0
    63    99      0   0   0
    63   106      0   0   0
    64    21      0   0   0
    64    28      0   0   0
    64    58      0   0   0
    64    63      0   0   0
    64    65      0   0   0
    64    70      0   0   0
    64   100      0   0   0
    64   107      0   0   0
    65    22      0   0   0
    65    29      0   0   0
    65    59      0   0   0
    65    64      0   0   0
    65    66      0   0   0
    65    71      0   0   0
    65   101      0   0   0
    65   108      0   0   0
    66    23      0   0   0
    66    30      0   0   0
    66    60      0   0   0
    66    65      0   0   0
    66    72      0   0   0
    66   102      0   0   0
    66    61      0   0   1
    66   103      0   0   1
    67    31      0   0   0
    67    61      0   0   0
    67    68      0   0   0
    67   103      0   0   0
    67    37      0   1   0
    67    74      0   1   0
    67    30      0   0  -1
    67    72      0   0  -1
    68    25      0   0   0
    68    32      0   0   0
    68    62      0   0   0
    68    67      0   0   0
    68    69      0   0   0
    68   104      0   0   0
    68    38      0   1   0
    68    75      0   1   0
    69    26      0   0   0
    69    33      0   0   0
    69    63      0   0   0
    69    68      0   0   0
    69    70      0   0   0
    69   105      0   0   0
    69    39      0   1   0
    69    76      0   1   0
    70    27      0   0   0
    70    34      0   0   0
    70    64      0   0   0
    70    69      0   0   0
    70    71      0   0   0
    70   106      0   0   0
    70    40      0   1   0
    70    77      0   1   0
    71    28      0   0   0
    71    35      0   0   0
    71    65      0   0   0
    71    70      0   0   0
    71    72      0   0   0
    71   107      0   0   0
    71    41      0   1   0
    71    78      0   1   0
    72    29      0   0   0
    72    36      0   0   0
    72    66      0   0   0
    72    71      0   0   0
    72   108      0   0   0
    72    42      0   1   0
    72    67      0   0   1
    72    73      0   1   1
    73    37      0   0   0
    73    74      0   0   0
    73    79      0   0   0
    73   109      0   0   0
    73   116      0   0   0
    73    78      0   0  -1
    73   103      0  -1   0
    73    72      0  -1  -1
    74    38      0   0   0
    74    73      0   0   0
    74    75      0   0   0
    74    80      0   0   0
    74   110      0   0   0
    74   117      0   0   0
    74    67      0  -1   0
    74   104      0  -1   0
    75    39      0   0   0
    75    74      0   0   0
    75    76      0   0   0
    75    81      0   0   0
    75   111      0   0   0
    75   118      0   0   0
    75    68      0  -1   0
    75   105      0  -1   0
    76    40      0   0   0
    76    75      0   0   0
    76    77      0   0   0
    76    82      0   0   0
    76   112      0   0   0
    76   119      0   0   0
    76    69      0  -1   0
    76   106      0  -1   0
    77    41      0   0   0
    77    76      0   0   0
    77    78      0   0   0
    77    83      0   0   0
    77   113      0   0   0
    77   120      0   0   0
    77    70      0  -1   0
    77   107      0  -1   0
    78    42      0   0   0
    78    77      0   0   0
    78    84      0   0   0
    78   114      0   0   0
    78    73      0   0   1
    78   115      0   0   1
    78    71      0  -1   0
    78   108      0  -1   0
    79    43      0   0   0
    79    73      0   0   0
    79    80      0   0   0
    79    85      0   0   0
    79   115      0   0   0
    79   122      0   0   0
    79    42      0   0  -1
    79    84      0   0  -1
    80    37      0   0   0
    80    44      0   0   0
    80    74      0   0   0
    80    79      0   0   0
    80    81      0   0   0
    80    86      0   0   0
    80   116      0   0   0
    80   123      0   0   0
    81    38      0   0   0
    81    45      0   0   0
    81    75      0   0   0
    81    80      0   0   0
    81    82      0   0   0
    81    87      0   0   0
    81   117      0   0   0
    81   124      0   0   0
    82    39      0   0   0
    82    46      0   0   0
    82    76      0   0   0
    82    81      0   0   0
    82    83      0   0   0
    82    88      0   0   0
    82   118      0   0   0
    82   125      0   0   0
    83    40      0   0   0
    83    47      0   0   0
    83    77      0   0   0
    83    82      0   0   0
    83    84      0   0   0
    83    89      0   0   0
    83   119      0   0   0
    83   126      0   0   0
    84    41      0   0   0
    84    48      0   0   0
    84    78      0   0   0
    84    83      0   0   0
    84    90      0   0   0
    84   120      0   0   0
    84    79      0   0   1
    84   121      0   0   1
    85    49      0   0   0
    85    79      0   0   0
    85    86      0   0   0
    85    91      0   0   0
    85   121      0   0   0
    85   128      0   0   0
    85    48      0   0  -1
    85    90      0   0  -1
    86    43      0   0   0
    86    50      0   0   0
    86    80      0   0   0
    86    85      0   0   0
    86    87      0   0   0
    86    92      0   0   0
    86   122      0   0   0
    86   129      0   0   0
    87    44      0   0   0
    87    51      0   0   0
    87    81      0   0   0
    87    86      0   0   0
    87    88      0   0   0
    87    93      0   0   0
    87   123      0   0   0
    87   130      0   0   0
    88    45      0   0   0
    88    52      0   0   0
    88    82      0   0   0
    88    87      0   0   0
    88    89      0   0   0
    88    94      0   0   0
    88   124      0   0   0
    88   131      0   0   0
    89    46      0   0   0
    89    53      0   0   0
    89    83      0   0   0
    89    88      0   0   0
    89    90      0   0   0
    89    95      0   0   0
    89   125      0   0   0
    89   132      0   0   0
    90    47      0   0   0
    90    54      0   0   0
    90    84      0   0   0
    90    89      0   0   0
    90    96      0   0   0
    90   126      0   0   0
    90    85      0   0   1
    90   127      0   0   1
    91    55      0   0   0
    91    85      0   0   0
    91    92      0   0   0
    91    97      0   0   0
    91   127      0   0   0
    91   134      0   0   0
    91    54      0   0  -1
    91    96      0   0  -1
    92    49      0   0   0
    92    56      0   0   0
    92    86      0   0   0
    92    91      0   0   0
    92    93      0   0   0
    92    98      0   0   0
    92   128      0   0   0
    92   135      0   0   0
    93    50      0   0   0
    93    57      0   0   0
    93    87      0   0   0
    93    92      0   0   0
    93    94      0   0   0
    93    99      0   0   0
    93   129      0   0   0
    93   136      0   0   0
    94    51      0   0   0
    94    58      0   0   0
    94    88      0   0   0
    94    93      0   0   0
    94    95      0   0   0
    94   100      0   0   0
    94   130      0   0   0
    94   137      0   0   0
    95    52      0   0   0
    95    59      0   0   0
    95    89      0   0   0
    95    94      0   0   0
    95    96      0   0   0
    95   101      0   0   0
    95   131      0   0   0
    95   138      0   0   0
    96    53      0   0   0
    96    60      0   0   0
    96    90      0   0   0
    96    95      0   0   0
    96   102      0   0   0
    96   132      0   0   0
    96    91      0   0   1
    96   133      0   0   1
    97    61      0   0   0
    97    91      0   0   0
    97    98      0   0   0
    97   103      0   0   0
    97   133      0   0   0
    97   140      0   0   0
    97    60      0   0  -1
    97   102      0   0  -1
    98    55      0   0   0
    98    62      0   0   0
    98    92      0   0   0
    98    97      0   0   0
    98    99      0   0   0
    98   104      0   0   0
    98   134      0   0   0
    98   141      0   0   0
    99    56      0   0   0
    99    63      0   0   0
    99    93      0   0   0
    99    98      0   0   0
    99   100      0   0   0
    99   105      0   0   0
    99   135      0   0   0
    99   142      0   0   0
   100    57      0   0   0
   100    64      0   0   0
   100    94      0   0   0
   100    99      0   0   0
   100   101      0   0   0
   100   106      0   0   0
   100   136      0   0   0
   100   143      0   0   0
   101    58      0   0   0
   101    65      0   0   0
   101    95      0   0   0
   101   100      0   0   0
   101   102      0   0   0
   101   107      0   0   0
   101   137      0   0   0
   101   144      0   0   0
   102    59      0   0   0
   102    66      0   0   0
   102    96      0   0   0
   102   101      0   0   0
   102   108      0   0   0
   102   138      0   0   0
   102    97      0   0   1
   102   139      0   0   1
   103    67      0   0   0
   103    97      0   0   0
   103   104      0   0   0
   103   139      0   0   0
   103    73      0   1   0
   103   110      0   1   0
   103    66      0   0  -1
   103   108      0   0  -1
   104    61      0   0   0
   104    68      0   0   0
   104    98      0   0   0
   104   103      0   0   0
   104   105      0   0   0
   104   140      0   0   0
   104    74      0   1   0
   104   111      0   1   0
   105    62      0   0   0
   105    69      0   0   0
   105    99      0   0   0
   105   104      0   0   0
   105   106      0   0   0
   105   141      0   0   0
   105    75      0   1   0
   105   112      0   1   0
   106    63      0   0   0
   106    70      0   0   0
   106   100      0   0   0
   106   105      0   0   0
   106   107      0   0   0
   106   142      0   0   0
   106    76      0   1   0
   106   113      0   1   0
   107    64      0   0   0
   107    71      0   0   0
   107   101      0   0   0
   107   106      0   0   0
   107   108      0   0   0
   107   143      0   0   0
   107    77      0   1   0
   107   114      0   1   0
   108    65      0   0   0
   108    72      0   0   0
   108   102      0   0   0
   108   107      0   0   0
   108   144      0   0   0
   108    78      0   1   0
   108   103      0   0   1
   108   109      0   1   1
   109    73      0   0   0
   109   110      0   0   0
   109   115      0   0   0
   109   145      0   0   0
   109   152      0   0   0
   109   114      0   0  -1
   109   139      0  -1   0
   109   108      0  -1  -1
   110    74      0   0   0
   110   109      0   0   0
   110   111      0   0   0
   110   116      0   0   0
   110   146      0   0   0
   110   153      0   0   0
   110   103      0  -1   0
   110   140      0  -1   0
   111    75      0   0   0
   111   110      0   0   0
   111   112      0   0   0
   111   117      0   0   0
   111   147      0   0   0
   111   154      0   0   0
   111   104      0  -1   0
   111   141      0  -1   0
   112    76      0   0   0
   112   111      0   0   0
   112   113      0   0   0
   112   118      0   0   0
   112   148      0   0   0
   112   155      0   0   0
   112   105      0  -1   0
   112   142      0  -1   0
   113    77      0   0   0
   113   112      0   0   0
   113   114      0   0   0
   113   119      0   0   0
   113   149      0   0   0
   113   156      0   0   0
   113   106      0  -1   0
   113   143      0  -1   0
   114    78      0   0   0
   114   113      0   0   0
   114   120      0   0   0
   114   150      0   0   0
   114   109      0   0   1
   114   151      0   0   1
   114   107      0  -1   0
   114   144      0  -1   0
   115    79      0   0   0
   115   109      0   0   0
   115   116      0   0   0
   115   121      0   0   0
   115   151      0   0   0
   115   158      0   0   0
   115    78      0   0  -1
   115   120      0   0  -1
   116    73      0   0   0
   116    80      0   0   0
   116   110      0   0   0
   116   115      0   0   0
   116   117      0   0   0
   116   122      0   0   0
   116   152      0   0   0
   116   159      0   0   0
   117    74      0   0   0
   117    81      0   0   0
   117   111      0   0   0
   117   116      0   0   0
   117   118      0   0   0
   117   123      0   0   0
   117   153      0   0   0
   117   160      0   0   0
   118    75      0   0   0
   118    82      0   0   0
   118   112      0   0   0
   118   117      0   0   0
   118   119      0   0   0
   118   124      0   0   0
   118   154      0   0   0
   118   161      0   0   0
   119    76      0   0   0
   119    83      0   0   0
   119   113      0   0   0
   119   118      0   0   0
   119   120      0   0   0
   119   125      0   0   0
   119   155      0   0   0
   119   162      0   0   0
   120    77      0   0   0
   120    84      0   0   0
   120   114      0   0   0
   120   119      0   0   0
   120   126      0   0   0
   120   156      0   0   0
   120   115      0   0   1
   120   157      0   0   1
   121    85      0   0   0
   121   115      0   0   0
   121   122      0   0   0
   121   127      0   0   0
   121   157      0   0   0
   121   164      0   0   0
   121    84      0   0  -1
   121   126      0   0  -1
   122    79      0   0   0
   122    86      0   0   0
   122   116      0   0   0
   122   121      0   0   0
   122   123      0   0   0
   122   128      0   0   0
   122   158      0   0   0
   122   165      0   0   0
   123    80      0   0   0
   123    87      0   0   0
   123   117      0   0   0
   123   122      0   0   0
   123   124      0   0   0
   123   129      0   0   0
   123   159      0   0   0
   123   166      0   0   0
   124    81      0   0   0
   124    88      0   0   0
   124   118      0   0   0
   124   123      0   0   0
   124   125      0   0   0
   124   130      0   0   0
   124   160      0   0   0
   124   167      0   0   0
   125    82      0   0   0
   125    89      0   0   0
   125   119      0   0   0
   125   124      0   0   0
   125   126      0   0   0
   125   131      0   0   0
   125   161      0   0   0
   125   168      0   0   0
   126    83      0   0   0
   126    90      0   0   0
   126   120      0   0   0
   126   125      0   0   0
   126   132      0   0   0
   126   162      0   0   0
   126   121      0   0   1
   126   163      0   0   1
   127    91      0   0   0
   127   121      0   0   0
   127   128      0   0   0
   127   133      0   0   0
   127   163      0   0   0
   127   170      0   0   0
   127    90      0   0  -1
   127   132      0   0  -1
   128    85      0   0   0
   128    92      0   0   0
   128   122      0   0   0
   128   127      0   0   0
   128   129      0   0   0
   128   134      0   0   0
   128   164      0   0   0
   128   171      0   0   0
   129    86      0   0   0
   129    93      0   0   0
   129   123      0   0   0
   129   128      0   0   0
   129   130      0   0   0
   129   135      0   0   0
   129   165      0   0   0
   129   172      0   0   0
   130    87      0   0   0
   130    94      0   0   0
   130   124      0   0   0
   130   129      0   0   0
   130   131      0   0   0
   130   136      0   0   0
   130   166      0   0   0
   130   173      0   0   0
   131    88      0   0   0
   131    95      0   0   0
   131   125      0   0   0
   131   130      0   0   0
   131   132      0   0   0
   131   137      0   0   0
   131   167      0   0   0
   131   174      0   0   0
   132    89      0   0   0
   132    96      0   0   0
   132   126      0   0   0
   132   131      0   0   0
   132   138      0   0   0
   132   168      0   0   0
   132   127      0   0   1
   132   169      0   0   1
   133    97      0   0   0
   133   127      0   0   0
   133   134      0   0   0
   133   139      0   0   0
   133   169      0   0   0
   133   176      0   0   0
   133    96      0   0  -1
   133   138      0   0  -1
   134    91      0   0   0
   134    98      0   0   0
   134   128      0   0   0
   134   133      0   0   0
   134   135      0   0   0
   134   140      0   0   0
   134   170      0   0   0
   134   177      0   0   0
   135    92      0   0   0
   135    99      0   0   0
   135   129      0   0   0
   135   134      0   0   0
   135   136      0   0   0
   135   141      0   0   0
   135   171      0   0   0
   135   178      0   0   0
   136    93      0   0   0
   136   100      0   0   0
   136   130      0   0   0
   136   135      0   0   0
   136   137      0   0   0
   136   142      0   0   0
   136   172      0   0   0
   136   179      0   0   0
   137    94      0   0   0
   137   101      0   0   0
   137   131      0   0   0
   137   136      0   0   0
   137   138      0   0   0
   137   143      0   0   0
   137   173      0   0   0
   137   180      0   0   0
   138    95      0   0   0
   138   102      0   0   0
   138   132      0   0   0
   138   137      0   0   0
   138   144      0   0   0
   138   174      0   0   0
   138   133      0   0   1
   138   175      0   0   1
   139   103      0   0   0
   139   133      0   0   0
   139   140      0   0   0
   139   175      0   0   0
   139   109      0   1   0
   139   146      0   1   0
   139   102      0   0  -1
   139   144      0   0  -1
   140    97      0   0   0
   140   104      0   0   0
   140   134      0   0   0
   140   139      0   0   0
   140   141      0   0   0
   140   176      0   0   0
   140   110      0   1   0
   140   147      0   1   0
   141    98      0   0   0
   141   105      0   0   0
   141   135      0   0   0
   141   140      0   0   0
   141   142      0   0   0
   141   177      0   0   0
   141   111      0   1   0
   141   148      0   1   0
   142    99      0   0   0
   142   106      0   0   0
   142   136      0   0   0
   142   141      0   0   0
   142   143      0   0   0
   142   178      0   0   0
   142   112      0   1   0
   142   149      0   1   0
   143   100      0   0   0
   143   107      0   0   0
   143   137      0   0   0
   143   142      0   0   0
   143   144      0   0   0
   143   179      0   0   0
   143   113      0   1   0
   143   150      0   1   0
   144   101      0   0   0
   144   108      0   0   0
   144   138      0   0   0
   144   143      0   0   0
   144   180      0   0   0
   144   114      0   1   0
   144   139      0   0   1
   144   145      0   1   1
   145   109      0   0   0
   145   146      0   0   0
   145   151      0   0   0
   145   181      0   0   0
   145   188      0   0   0
   145   150      0   0  -1
   145   175      0  -1   0
   145   144      0  -1  -1
   146   110      0   0   0
   146   145      0   0   0
   146   147      0   0   0
   146   152      0   0   0
   146   182      0   0   0
   146   189      0   0   0
   146   139      0  -1   0
   146   176      0  -1   0
   147   111      0   0   0
   147   146      0   0   0
   147   148      0   0   0
   147   153      0   0   0
   147   183      0   0   0
   147   190      0   0   0
   147   140      0  -1   0
   147   177      0  -1   0
   148   112      0   0   0
   148   147      0   0   0
   148   149      0   0   0
   148   154      0   0   0
   148   184      0   0   0
   148   191      0   0   0
   148   141      0  -1   0
   148   178      0  -1   0
   149   113      0   0   0
   149   148      0   0   0
   149   150      0   0   0
   149   155      0   0   0
   149   185      0   0   0
   149   192      0   0   0
   149   142      0  -1   0
   149   179      0  -1   0
   150   114      0   0   0
   150   149      0   0   0
   150   156      0   0   0
   150   186      0   0   0
   150   145      0   0   1
   150   187      0   0   1
   150   143      0  -1   0
   150   180      0  -1   0
   151   115      0   0   0
   151   145      0   0   0
   151   152      0   0   0
   151   157      0   0   0
   151   187      0   0   0
   151   194      0   0   0
   151   114      0   0  -1
   151   156      0   0  -1
   152   109      0   0   0
   152   116      0   0   0
   152   146      0   0   0
   152   151      0   0   0
   152   153      0   0   0
   152   158      0   0   0
   152   188      0   0   0
   152   195      0   0   0
   153   110      0   0   0
   153   117      0   0   0
   153   147      0   0   0
   153   152      0   0   0
   153   154      0   0   0
   153   159      0   0   0
   153   189      0   0   0
   153   196      0   0   0
   154   111      0   0   0
   154   118      0   0   0
   154   148      0   0   0
   154   153      0   0   0
   154   155      0   0   0
   154   160      0   0   0
   154   190      0   0   0
   154   197      0   0   0
   155   112      0   0   0
   155   119      0   0   0
   155   149      0   0   0
   155   154      0   0   0
   155   156      0   0   0
   155   161      0   0   0
   155   191      0   0   0
   155   198      0   0   0
   156   113      0   0   0
   156   120      0   0   0
   156   150      0   0   0
   156   155      0   0   0
   156   162      0   0   0
   156   192      0   0   0
   156   151      0   0   1
   156   193      0   0   1
   157   121      0   0   0
   157   151      0   0   0
   157   158      0   0   0
   157   163      0   0   0
   157   193      0   0   0
   157   200      0   0   0
   157   120      0   0  -1
   157   162      0   0  -1
   158   115      0   0   0
   158   122      0   0   0
   158   152      0   0   0
   158   157      0   0   0
   158   159      0   0   0
   158   164      0   0   0
   158   194      0   0   0
   158   201      0   0   0
   159   116      0   0   0
   159   123      0   0   0
   159   153      0   0   0
   159   158      0   0   0
   159   160      0   0   0
   159   165      0   0   0
   159   195      0   0   0
   159   202      0   0   0
   160   117      0   0   0
   160   124      0   0   0
   160   154      0   0   0
   160   159      0   0   0
   160   161      0   0   0
   160   166      0   0   0
   160   196      0   0   0
   160   203      0   0   0
   161   118      0   0   0
   161   125      0   0   0
   161   155      0   0   0
   161   160      0   0   0
   161   162      0   0   0
   161   167      0   0   0
   161   197      0   0   0
   161   204      0   0   0
   162   119      0   0   0
   162   126      0   0   0
   162   156      0   0   0
   162   161      0   0   0
   162   168      0   0   0
   162   198      0   0   0
   162   157      0   0   1
   162   199      0   0   1
   163   127      0   0   0
   163   157      0   0   0
   163   164      0   0   0
   163   169      0   0   0
   163   199      0   0   0
   163   206      0   0   0
   163   126      0   0  -1
   163   168      0   0  -1
   164   121      0   0   0
   164   128      0   0   0
   164   158      0   0   0
   164   163      0   0   0
   164   165      0   0   0
   164   170      0   0   0
   164   200      0   0   0
   164   207      0   0   0
   165   122      0   0   0
   165   129      0   0   0
   165   159      0   0   0
   165   164      0   0   0
   165   166      0   0   0
   165   171      0   0   0
   165   201      0   0   0
   165   208      0   0   0
   166   123      0   0   0
   166   130      0   0   0
   166   160      0   0   0
   166   165      0   0   0
   166   167      0   0   0
   166   172      0   0   0
   166   202      0   0   0
   166   209      0   0   0
   167   124      0   0   0
   167   131      0   0   0
   167   161      0   0   0
   167   166      0   0   0
   167   168      0   0   0
   167   173      0   0   0
   167   203      0   0   0
   167   210      0   0   0
   168   125      0   0   0
   168   132      0   0   0
   168   162      0   0   0
   168   167      0   0   0
   168   174      0   0   0
   168   204      0   0   0
   168   163      0   0   1
   168   205      0   0   1
   169   133      0   0   0
   169   163      0   0   0
   169   170      0   0   0
   169   175      0   0   0
   169   205      0   0   0
   169   212      0   0   0
   169   132      0   0  -1
   169   174      0   0  -1
   170   127      0   0   0
   170   134      0   0   0
   170   164      0   0   0
   170   169      0   0   0
   170   171      0   0   0
   170   176      0   0   0
   170   206      0   0   0
   170   213      0   0   0
   171   128      0   0   0
   171   135      0   0   0
   171   165      0   0   0
   171   170      0   0   0
   171   172      0   0   0
   171   177      0   0   0
   171   207      0   0   0
   171   214      0   0   0
   172   129      0   0   0
   172   136      0   0   0
   172   166      0   0   0
   172   171      0   0   0
   172   173      0   0   0
   172   178      0   0   0
   172   208      0   0   0
   172   215      0   0   0
   173   130      0   0   0
   173   137      0   0   0
   173   167      0   0   0
   173   172      0   0   0
   173   174      0   0   0
   173   179      0   0   0
   173   209      0   0   0
   173   216      0   0   0
   174   131      0   0   0
   174   138      0   0   0
   174   168      0   0   0
   174   173      0   0   0
   174   180      0   0   0
   174   210      0   0   0
   174   169      0   0   1
   174   211      0   0   1
   175   139      0   0   0
   175   169      0   0   0
   175   176      0   0   0
   175   211      0   0   0
   175   145      0   1   0
   175   182      0   1   0
   175   138      0   0  -1
   175   180      0   0  -1
   176   133      0   0   0
   176   140      0   0   0
   176   170      0   0   0
   176   175      0   0   0
   176   177      0   0   0
   176   212      0   0   0
   176   146      0   1   0
   176   183      0   1   0
   177   134      0   0   0
   177   141      0   0   0
   177   171      0   0   0
   177   176      0   0   0
   177   178      0   0   0
   177   213      0   0   0
   177   147      0   1   0
   177   184      0   1   0
   178   135      0   0   0
   178   142      0   0   0
   178   172      0   0   0
   178   177      0   0   0
   178   179      0   0   0
   178   214      0   0   0
   178   148      0   1   0
   178   185      0   1   0
   179   136      0   0   0
   179   143      0   0   0
   179   173      0   0   0
   179   178      0   0   0
   179   180      0   0   0
   179   215      0   0   0
   179   149      0   1   0
   179   186      0   1   0
   180   137      0   0   0
   180   144      0   0   0
   180   174      0   0   0
   180   179      0   0   0
   180   216      0   0   0
   180   150      0   1   0
   180   175      0   0   1
   180   181      0   1   1
   181   145      0   0   0
   181   182      0   0   0
   181   187      0   0   0
   181     1      1   0   0
   181     8      1   0   0
   181   186      0   0  -1
   181   211      0  -1   0
   181   180      0  -1  -1
   182   146      0   0   0
   182   181      0   0   0
   182   183      0   0   0
   182   188      0   0   0
   182     2      1   0   0
   182     9      1   0   0
   182   175      0  -1   0
   182   212      0  -1   0
   183   147      0   0   0
   183   182      0   0   0
   183   184      0   0   0
   183   189      0   0   0
   183     3      1   0   0
   183    10      1   0   0
   183   176      0  -1   0
   183   213      0  -1   0
   184   148      0   0   0
   184   183      0   0   0
   184   185      0   0   0
   184   190      0   0   0
   184     4      1   0   0
   184    11      1   0   0
   184   177      0  -1   0
   184   214      0  -1   0
   185   149      0   0   0
   185   184      0   0   0
   185   186      0   0   0
   185   191      0   0   0
   185     5      1   0   0
   185    12      1   0   0
   185   178      0  -1   0
   185   215      0  -1   0
   186   150      0   0   0
   186   185      0   0   0
   186   192      0   0   0
   186     6      1   0   0
   186   181      0   0   1
   186   179      0  -1   0
   186   216      0  -1   0
   186     7      1   0   1
   187   151      0   0   0
   187   181      0   0   0
   187   188      0   0   0
   187   193      0   0   0
   187     7      1   0   0
   187    14      1   0   0
   187   150      0   0  -1
   187   192      0   0  -1
   188   145      0   0   0
   188   152      0   0   0
   188   182      0   0   0
   188   187      0   0   0
   188   189      0   0   0
   188   194      0   0   0
   188     8      1   0   0
   188    15      1   0   0
   189   146      0   0   0
   189   153      0   0   0
   189   183      0   0   0
   189   188      0   0   0
   189   190      0   0   0
   189   195      0   0   0
   189     9      1   0   0
   189    16      1   0   0
   190   147      0   0   0
   190   154      0   0   0
   190   184      0   0   0
   190   189      0   0   0
   190   191      0   0   0
   190   196      0   0   0
   190    10      1   0   0
   190    17      1   0   0
   191   148      0   0   0
   191   155      0   0   0
   191   185      0   0   0
   191   190      0   0   0
   191   192      0   0   0
   191   197      0   0   0
   191    11      1   0   0
   191    18      1   0   0
   192   149      0   0   0
   192   156      0   0   0
   192   186      0   0   0
   192   191      0   0   0
   192   198      0   0   0
   192    12      1   0   0
   192   187      0   0   1
   192    13      1   0   1
   193   157      0   0   0
   193   187      0   0   0
   193   194      0   0   0
   193   199      0   0   0
   193    13      1   0   0
   193    20      1   0   0
   193   156      0   0  -1
   193   198      0   0  -1
   194   151      0   0   0
   194   158      0   0   0
   194   188      0   0   0
   194   193      0   0   0
   194   195      0   0   0
   194   200      0   0   0
   194    14      1   0   0
   194    21      1   0   0
   195   152      0   0   0
   195   159      0   0   0
   195   189      0   0   0
   195   194      0   0   0
   195   196      0   0   0
   195   201      0   0   0
   195    15      1   0   0
   195    22      1   0   0
   196   153      0   0   0
   196   160      0   0   0
   196   190      0   0   0
   196   195      0   0   0
   196   197      0   0   0
   196   202      0   0   0
   196    16      1   0   0
   196    23      1   0   0
   197   154      0   0   0
   197   161      0   0   0
   197   191      0   0   0
   197   196      0   0   0
   197   198      0   0   0
   197   203      0   0   0
   197    17      1   0   0
   197    24      1   0   0
   198   155      0   0   0
   198   162      0   0   0
   198   192      0   0   0
   198   197      0   0   0
   198   204      0   0   0
   198    18      1   0   0
   198   193      0   0   1
   198    19      1   0   1
   199   163      0   0   0
   199   193      0   0   0
   199   200      0   0   0
   199   205      0   0   0
   199    19      1   0   0
   199    26      1   0   0
   199   162      0   0  -1
   199   204      0   0  -1
   200   157      0   0   0
   200   164      0   0   0
   200   194      0   0   0
   200   199      0   0   0
   200   201      0   0   0
   200   206      0   0   0
   200    20      1   0   0
   200    27      1   0   0
   201   158      0   0   0
   201   165      0   0   0
   201   195      0   0   0
   201   200      0   0   0
   201   202      0   0   0
   201   207      0   0   0
   201    21      1   0   0
   201    28      1   0   0
   202   159      0   0   0
   202   166      0   0   0
   202   196      0   0   0
   202   201      0   0   0
   202   203      0   0   0
   202   208      0   0   0
   202    22      1   0   0
   202    29      1   0   0
   203   160      0   0   0
   203   167      0   0   0
   203   197      0   0   0
   203   202      0   0   0
   203   204      0   0   0
   203   209      0   0   0
   203    23      1   0   0
   203    30      1   0   0
   204   161      0   0   0
   204   168      0   0   0
   204   198      0   0   0
   204   203      0   0   0
   204   210      0   0   0
   204    24      1   0   0
   204   199      0   0   1
   204    25      1   0   1
   205   169      0   0   0
   205   199      0   0   0
   205   206      0   0   0
   205   211      0   0   0
   205    25      1   0   0
   205    32      1   0   0
   205   168      0   0  -1
   205   210      0   0  -1
   206   163      0   0   0
   206   170      0   0   0
   206   200      0   0   0
   206   205      0   0   0
   206   207      0   0   0
   206   212      0   0   0
   206    26      1   0   0
   206    33      1   0   0
   207   164      0   0   0
   207   171      0   0   0
   207   201      0   0   0
   207   206      0   0   0
   207   208      0   0   0
   207   213      0   0   0
   207    27      1   0   0
   207    34      1   0   0
   208   165      0   0   0
   208   172      0   0   0
   208   202      0   0   0
   208   207      0   0   0
   208   209      0   0   0
   208   214      0   0   0
   208    28      1   0   0
   208    35      1   0   0
   209   166      0   0   0
   209   173      0   0   0
   209   203      0   0   0
   209   208      0   0   0
   209   210      0   0   0
   209   215      0   0   0
   209    29      1   0   0
   209    36      1   0   0
   210   167      0   0   0
   210   174      0   0   0
   210   204      0   0   0
   210   209      0   0   0
   210   216      0   0   0
   210    30      1   0   0
   210   205      0   0   1
   210    31      1   0   1
   211   175      0   0   0
   211   205      0   0   0
   211   212      0   0   0
   211    31      1   0   0
   211   181      0   1   0
   211   174      0   0  -1
   211   216      0   0  -1
   211     2      1   1   0
   212   169      0   0   0
   212   176      0   0   0
   212   206      0   0   0
   212   211      0   0   0
   212   213      0   0   0
   212    32      1   0   0
   212   182      0   1   0
   212     3      1   1   0
   213   170      0   0   0
   213   177      0   0   0
   213   207      0   0   0
   213   212      0   0   0
   213   214      0   0   0
   213    33      1   0   0
   213   183      0   1   0
   213     4      1   1   0
   214   171      0   0   0
   214   178      0   0   0
   214   208      0   0   0
   214   213      0   0   0
   214   215      0   0   0
   214    34      1   0   0
   214   184      0   1   0
   214     5      1   1   0
   215   172      0   0   0
   215   179      0   0   0
   215   209      0   0   0
   215   214      0   0   0
   215   216      0   0   0
   215    35      1   0   0
   215   185      0   1   0
   215     6      1   1   0
   216   173      0   0   0
   216   180      0   0   0
   216   210      0   0   0
   216   215      0   0   0
   216     1      1   1   1
   216    36      1   0   0
   216   186      0   1   0
   216   211      0   0   1
end nnkpts

begin exclude_bands
  10
   1
   2
   3
   4
   5
   6
   7
   8
   9
  10
end exclude_bands
