
             +---------------------------------------------------+
             |                                                   |
             |                   WANNIER90                       |
             |                                                   |
             +---------------------------------------------------+
             |                                                   |
             |        Welcome to the Maximally-Localized         |
             |        Generalized Wannier Functions code         |
             |            http://www.wannier.org                 |
             |                                                   |
             |  Wannier90 v2.0 Authors:                          |
             |    Arash A. Mostofi  (Imperial College London)    |
             |    Giovanni Pizzi    (EPFL)                       |
             |    Ivo Souza         (Universidad del Pais Vasco) |
             |    Jonathan R. Yates (University of Oxford)       |
             |                                                   |
             |  Wannier90 Contributors:                          |
             |    Young-Su Lee       (KIST, S. Korea)            |
             |    Matthew Shelley    (Imperial College London)   |
             |    Nicolas Poilvert   (Penn State University)     |
             |    Raffaello Bianco   (Paris 6 and CNRS)          |
             |    Gabriele Sclauzero (ETH Zurich)                |
             |                                                   |
             |  Wannier77 Authors:                               |
             |    Nicola Marzari    (EPFL)                       |
             |    Ivo Souza         (Universidad del Pais Vasco) |
             |    David Vanderbilt  (Rutgers University)         |
             |                                                   |
             |  Please cite                                      |
             |                                                   |
             |  [ref] "Wannier90: A Tool for Obtaining Maximally |
             |         Localised Wannier Functions"              |
             |        A. A. Mostofi, J. R. Yates, Y.-S. Lee,     |
             |        I. Souza, D. Vanderbilt and N. Marzari     |
             |        Comput. Phys. Commun. 178, 685 (2008)      |
             |                                                   |
             |  in any publications arising from the use of      |
             |  this code. For the method please cite            |
             |                                                   |
             |  [ref] "Maximally Localized Generalised Wannier   |
             |         Functions for Composite Energy Bands"     |
             |         N. Marzari and D. Vanderbilt              |
             |         Phys. Rev. B 56 12847 (1997)              |
             |                                                   |
             |  [ref] "Maximally Localized Wannier Functions     |
             |         for Entangled Energy Bands"               |
             |         I. Souza, N. Marzari and D. Vanderbilt    |
             |         Phys. Rev. B 65 035109 (2001)             |
             |                                                   |
             |                                                   |
             | Copyright (c) 1996-2015                           |
             |        Arash A. Mostofi, Jonathan R. Yates,       |
             |        Young-Su Lee, Giovanni Pizzi, Ivo Souza,   |
             |        David Vanderbilt and Nicola Marzari        |
             |                                                   |
             |        Release: 2.0.1   2nd April 2015            |
             |                                                   |
             | This program is free software; you can            |
             | redistribute it and/or modify it under the terms  |
             | of the GNU General Public License as published by |
             | the Free Software Foundation; either version 2 of |
             | the License, or (at your option) any later version|
             |                                                   |
             | This program is distributed in the hope that it   |
             | will be useful, but WITHOUT ANY WARRANTY; without |
             | even the implied warranty of MERCHANTABILITY or   |
             | FITNESS FOR A PARTICULAR PURPOSE. See the GNU     |
             | General Public License for more details.          |
             |                                                   |
             | You should have received a copy of the GNU General|
             | Public License along with this program; if not,   |
             | write to the Free Software Foundation, Inc.,      |
             | 675 Mass Ave, Cambridge, MA 02139, USA.           |
             |                                                   |
             +---------------------------------------------------+
             |    Execution started on 13Sep2016 at 16:31:54     |
             +---------------------------------------------------+
 
 ******************************************************************************
 * -> Using CODATA 2006 constant values                                       *
 *    (http://physics.nist.gov/cuu/Constants/index.html)                      *
 * -> Using Bohr value from CODATA                                            *
 ******************************************************************************
 

                                    ------
                                    SYSTEM
                                    ------

                              Lattice Vectors (Ang)
                    a_1    -1.805023   0.000000   1.805023
                    a_2     0.000000   1.805023   1.805023
                    a_3    -1.805023   1.805023   0.000000

                   Unit Cell Volume:      11.76193  (Ang^3)

                        Reciprocal-Space Vectors (Ang^-1)
                    b_1    -1.740472  -1.740472   1.740472
                    b_2     1.740472   1.740472   1.740472
                    b_3    -1.740472   1.740472  -1.740472
  
 *----------------------------------------------------------------------------*
 |   Site       Fractional Coordinate          Cartesian Coordinate (Ang)     |
 +----------------------------------------------------------------------------+
 | Cu   1   0.00000   0.00000   0.00000   |    0.00000   0.00000   0.00000    |
 *----------------------------------------------------------------------------*
  
                                ------------
                                K-POINT GRID
                                ------------
  
             Grid size =  4 x  4 x  4      Total points =   64
  
  
 *---------------------------------- MAIN ------------------------------------*
 |  Number of Wannier Functions               :                 7             |
 |  Number of input Bloch states              :                12             |
 |  Output verbosity (1=low, 5=high)          :                 1             |
 |  Timing Level (1=low, 5=high)              :                 1             |
 |  Optimisation (0=memory, 3=speed)          :                 3             |
 |  Length Unit                               :               Ang             |
 |  Post-processing setup (write *.nnkp)      :                 F             |
 |  Using Gamma-only branch of algorithms     :                 F             |
 *----------------------------------------------------------------------------*
 *------------------------------- WANNIERISE ---------------------------------*
 |  Total number of iterations                :               200             |
 |  Number of CG steps before reset           :                 5             |
 |  Trial step length for line search         :             2.000             |
 |  Convergence tolerence                     :         0.100E-09             |
 |  Convergence window                        :                -1             |
 |  Iterations between writing output         :                 1             |
 |  Iterations between backing up to disk     :               100             |
 |  Write r^2_nm to file                      :                 F             |
 |  Write xyz WF centres to file              :                 F             |
 |  Write on-site energies <0n|H|0n> to file  :                 F             |
 |  Use guiding centre to control phases      :                 F             |
 |  Use phases for initial projections        :                 F             |
 *----------------------------------------------------------------------------*
 *------------------------------- DISENTANGLE --------------------------------*
 |  Using band disentanglement                :                 T             |
 |  Total number of iterations                :                60             |
 |  Mixing ratio                              :             1.000             |
 |  Convergence tolerence                     :         1.000E-10             |
 |  Convergence window                        :                 3             |
 *----------------------------------------------------------------------------*
 Time to read parameters        0.004 (sec)

 *---------------------------------- K-MESH ----------------------------------*
 +----------------------------------------------------------------------------+
 |                    Distance to Nearest-Neighbour Shells                    |
 |                    ------------------------------------                    |
 |          Shell             Distance (Ang^-1)          Multiplicity         |
 |          -----             -----------------          ------------         |
 |             1                   0.753646                      8            |
 |             2                   0.870236                      6            |
 |             3                   1.230700                     12            |
 |             4                   1.443123                     24            |
 |             5                   1.507293                      8            |
 |             6                   1.740472                      6            |
 |             7                   1.896635                     24            |
 |             8                   1.945907                     24            |
 |             9                   2.131634                     24            |
 |            10                   2.260939                     32            |
 |            11                   2.461399                     12            |
 |            12                   2.574193                     48            |
 +----------------------------------------------------------------------------+
 | The b-vectors are chosen automatically                                     |
 | The following shells are used:   1                                         |
 +----------------------------------------------------------------------------+
 |                        Shell   # Nearest-Neighbours                        |
 |                        -----   --------------------                        |
 |                          1               8                                 |
 +----------------------------------------------------------------------------+
 | Completeness relation is fully satisfied [Eq. (B1), PRB 56, 12847 (1997)]  |
 +----------------------------------------------------------------------------+
 |                  b_k Vectors (Ang^-1) and Weights (Ang^2)                  |
 |                  ----------------------------------------                  |
 |            No.         b_k(x)      b_k(y)      b_k(z)        w_b           |
 |            ---        --------------------------------     --------        |
 |             1         0.435118    0.435118    0.435118     0.660231        |
 |             2        -0.435118   -0.435118    0.435118     0.660231        |
 |             3        -0.435118    0.435118   -0.435118     0.660231        |
 |             4        -0.435118    0.435118    0.435118     0.660231        |
 |             5         0.435118   -0.435118    0.435118     0.660231        |
 |             6        -0.435118   -0.435118   -0.435118     0.660231        |
 |             7         0.435118    0.435118   -0.435118     0.660231        |
 |             8         0.435118   -0.435118   -0.435118     0.660231        |
 +----------------------------------------------------------------------------+
 |                           b_k Directions (Ang^-1)                          |
 |                           -----------------------                          |
 |            No.           x           y           z                         |
 |            ---        --------------------------------                     |
 |             1         0.435118    0.435118    0.435118                     |
 |             2        -0.435118   -0.435118    0.435118                     |
 |             3        -0.435118    0.435118   -0.435118                     |
 |             4        -0.435118    0.435118    0.435118                     |
 +----------------------------------------------------------------------------+
  
 *============================================================================*
 |                              MEMORY ESTIMATE                               |
 |         Maximum RAM allocated during each phase of the calculation         |
 *============================================================================*
 |                        Disentanglement            1.76 Mb                  |
 |                            Wannierise:            1.21 Mb                  |
 |                          plot_wannier:            1.21 Mb                  |
 *----------------------------------------------------------------------------*
  
 Starting a new Wannier90 calculation ...

 Time to get kmesh              0.096 (sec)

 Reading overlaps from copper.mmn    :        73728

 Reading projections from copper.amn :         5376

 Time to read overlaps          0.072 (sec)

 *------------------------------- DISENTANGLE --------------------------------*
 +----------------------------------------------------------------------------+
 |                              Energy  Windows                               |
 |                              ---------------                               |
 |                   Outer:    2.81741  to   38.00000  (eV)                   |
 |                   Inner:    2.81741  to   13.00000  (eV)                   |
 +----------------------------------------------------------------------------+
   Number of target bands to extract:    7

                   Unitarised projection of Wannier functions                  
                   ------------------------------------------                  
   A_mn = <psi_m|g_n> --> S = A.A^+ --> U = S^-1/2.A
   In dis_project... done
   Using an inner window (linner = T)
   In dis_proj_froz... done

                   Extraction of optimally-connected subspace                  
                   ------------------------------------------                  
 +---------------------------------------------------------------------+<-- DIS
 |  Iter     Omega_I(i-1)      Omega_I(i)      Delta (frac.)    Time   |<-- DIS
 +---------------------------------------------------------------------+<-- DIS
       1       3.91743302       3.66269149       6.955E-02      0.18    <-- DIS
       2       3.66269149       3.66269149       2.021E-14      0.18    <-- DIS
       3       3.66269149       3.66269149      -3.331E-16      0.18    <-- DIS
       4       3.66269149       3.66269149      -1.221E-15      0.19    <-- DIS

             <<<      Delta < 1.000E-10  over  3 iterations     >>>
             <<< Disentanglement convergence criteria satisfied >>>

        Final Omega_I     3.66269149 (Ang^2)

 +----------------------------------------------------------------------------+

 Time to disentangle bands      0.020 (sec)

 Writing checkpoint file copper.chk... done


 *------------------------------- WANNIERISE ---------------------------------*
 +--------------------------------------------------------------------+<-- CONV
 | Iter  Delta Spread     RMS Gradient      Spread (Ang^2)      Time  |<-- CONV
 +--------------------------------------------------------------------+<-- CONV

 ------------------------------------------------------------------------------
 Initial State
  WF centre and spread    1  (  0.000000,  0.000000, -0.000000 )     0.41665762
  WF centre and spread    2  ( -0.000000,  0.000000,  0.000000 )     0.35080350
  WF centre and spread    3  ( -0.000000,  0.000000, -0.000000 )     0.35080360
  WF centre and spread    4  ( -0.000000, -0.000000,  0.000000 )     0.41667716
  WF centre and spread    5  ( -0.000000,  0.000000,  0.000000 )     0.35079728
  WF centre and spread    6  ( -0.902512,  0.902512,  0.902512 )     1.30069382
  WF centre and spread    7  (  0.902512, -0.902512, -0.902512 )     1.30069385
  Sum of centres and spreads (  0.000000, -0.000000, -0.000000 )     4.48712684

      0     0.449E+01     0.0000000000        4.4871268398       0.20  <-- CONV
        O_D=      0.0185815 O_OD=      0.8058538 O_TOT=      4.4871268 <-- SPRD
 ------------------------------------------------------------------------------
 Cycle:      1
  WF centre and spread    1  (  0.000000,  0.000000, -0.000000 )     0.41156074
  WF centre and spread    2  ( -0.000000, -0.000000,  0.000000 )     0.31198967
  WF centre and spread    3  ( -0.000000,  0.000000, -0.000000 )     0.31198981
  WF centre and spread    4  ( -0.000000, -0.000000,  0.000000 )     0.41157354
  WF centre and spread    5  ( -0.000000,  0.000000,  0.000000 )     0.31198849
  WF centre and spread    6  ( -0.902512,  0.902512,  0.902512 )     1.22934751
  WF centre and spread    7  (  0.902512, -0.902512, -0.902512 )     1.22934753
  Sum of centres and spreads (  0.000000, -0.000000, -0.000000 )     4.21779728

      1    -0.269E+00     0.3014213918        4.2177972798       0.20  <-- CONV
        O_D=      0.0157298 O_OD=      0.5393760 O_TOT=      4.2177973 <-- SPRD
 Delta: O_D= -0.2851732E-02 O_OD= -0.2664778E+00 O_TOT= -0.2693296E+00 <-- DLTA
 ------------------------------------------------------------------------------
 Cycle:      2
  WF centre and spread    1  (  0.000000,  0.000000, -0.000000 )     0.41450173
  WF centre and spread    2  ( -0.000000, -0.000000,  0.000000 )     0.30370737
  WF centre and spread    3  ( -0.000000, -0.000000, -0.000000 )     0.30370748
  WF centre and spread    4  ( -0.000000, -0.000000,  0.000000 )     0.41452465
  WF centre and spread    5  (  0.000000,  0.000000,  0.000000 )     0.30370684
  WF centre and spread    6  ( -0.902512,  0.902512,  0.902512 )     1.17430143
  WF centre and spread    7  (  0.902512, -0.902512, -0.902512 )     1.17430145
  Sum of centres and spreads (  0.000000, -0.000000, -0.000000 )     4.08875095

      2    -0.129E+00     0.2295668386        4.0887509490       0.21  <-- CONV
        O_D=      0.0046250 O_OD=      0.4214345 O_TOT=      4.0887509 <-- SPRD
 Delta: O_D= -0.1110480E-01 O_OD= -0.1179415E+00 O_TOT= -0.1290463E+00 <-- DLTA
 ------------------------------------------------------------------------------
 Cycle:      3
  WF centre and spread    1  ( -0.000000,  0.000000, -0.000000 )     0.41015337
  WF centre and spread    2  ( -0.000000, -0.000000, -0.000000 )     0.30666920
  WF centre and spread    3  ( -0.000000, -0.000000, -0.000000 )     0.30666930
  WF centre and spread    4  ( -0.000000, -0.000000,  0.000000 )     0.41015719
  WF centre and spread    5  (  0.000000,  0.000000,  0.000000 )     0.30666795
  WF centre and spread    6  ( -0.902512,  0.902512,  0.902512 )     1.14929356
  WF centre and spread    7  (  0.902512, -0.902512, -0.902512 )     1.14929359
  Sum of centres and spreads (  0.000000, -0.000000, -0.000000 )     4.03890417

      3    -0.498E-01     0.1498511732        4.0389041719       0.22  <-- CONV
        O_D=      0.0041828 O_OD=      0.3720298 O_TOT=      4.0389042 <-- SPRD
 Delta: O_D= -0.4421422E-03 O_OD= -0.4940463E-01 O_TOT= -0.4984678E-01 <-- DLTA
 ------------------------------------------------------------------------------
 Cycle:      4
  WF centre and spread    1  ( -0.000000,  0.000000, -0.000000 )     0.40847488
  WF centre and spread    2  ( -0.000000, -0.000000, -0.000000 )     0.30804301
  WF centre and spread    3  ( -0.000000, -0.000000, -0.000000 )     0.30804311
  WF centre and spread    4  ( -0.000000, -0.000000,  0.000000 )     0.40847261
  WF centre and spread    5  (  0.000000,  0.000000, -0.000000 )     0.30804171
  WF centre and spread    6  ( -0.902512,  0.902512,  0.902512 )     1.14360706
  WF centre and spread    7  (  0.902512, -0.902512, -0.902512 )     1.14360708
  Sum of centres and spreads (  0.000000, -0.000000, -0.000000 )     4.02828946

      4    -0.106E-01     0.0753413397        4.0282894649       0.22  <-- CONV
        O_D=      0.0019231 O_OD=      0.3636749 O_TOT=      4.0282895 <-- SPRD
 Delta: O_D= -0.2259731E-02 O_OD= -0.8354976E-02 O_TOT= -0.1061471E-01 <-- DLTA
 ------------------------------------------------------------------------------
 Cycle:      5
  WF centre and spread    1  ( -0.000000,  0.000000, -0.000000 )     0.40839164
  WF centre and spread    2  ( -0.000000, -0.000000, -0.000000 )     0.30804496
  WF centre and spread    3  ( -0.000000, -0.000000, -0.000000 )     0.30804506
  WF centre and spread    4  ( -0.000000, -0.000000,  0.000000 )     0.40839053
  WF centre and spread    5  (  0.000000,  0.000000, -0.000000 )     0.30804358
  WF centre and spread    6  ( -0.902512,  0.902512,  0.902512 )     1.14356817
  WF centre and spread    7  (  0.902512, -0.902512, -0.902512 )     1.14356820
  Sum of centres and spreads (  0.000000, -0.000000, -0.000000 )     4.02805214

      5    -0.237E-03     0.0135483250        4.0280521412       0.23  <-- CONV
        O_D=      0.0018826 O_OD=      0.3634781 O_TOT=      4.0280521 <-- SPRD
 Delta: O_D= -0.4050849E-04 O_OD= -0.1968151E-03 O_TOT= -0.2373236E-03 <-- DLTA
 ------------------------------------------------------------------------------
 Cycle:      6
  WF centre and spread    1  ( -0.000000,  0.000000, -0.000000 )     0.40838788
  WF centre and spread    2  ( -0.000000, -0.000000, -0.000000 )     0.30800943
  WF centre and spread    3  ( -0.000000, -0.000000, -0.000000 )     0.30800953
  WF centre and spread    4  ( -0.000000, -0.000000,  0.000000 )     0.40838758
  WF centre and spread    5  (  0.000000,  0.000000, -0.000000 )     0.30800813
  WF centre and spread    6  ( -0.902512,  0.902512,  0.902512 )     1.14362026
  WF centre and spread    7  (  0.902512, -0.902512, -0.902512 )     1.14362029
  Sum of centres and spreads (  0.000000, -0.000000, -0.000000 )     4.02804311

      6    -0.903E-05     0.0024348551        4.0280431120       0.24  <-- CONV
        O_D=      0.0018853 O_OD=      0.3634663 O_TOT=      4.0280431 <-- SPRD
 Delta: O_D=  0.2732827E-05 O_OD= -0.1176210E-04 O_TOT= -0.9029271E-05 <-- DLTA
 ------------------------------------------------------------------------------
 Cycle:      7
  WF centre and spread    1  ( -0.000000,  0.000000, -0.000000 )     0.40838972
  WF centre and spread    2  ( -0.000000, -0.000000, -0.000000 )     0.30795724
  WF centre and spread    3  ( -0.000000, -0.000000, -0.000000 )     0.30795734
  WF centre and spread    4  ( -0.000000, -0.000000,  0.000000 )     0.40838997
  WF centre and spread    5  (  0.000000,  0.000000, -0.000000 )     0.30795609
  WF centre and spread    6  ( -0.902512,  0.902512,  0.902512 )     1.14369551
  WF centre and spread    7  (  0.902512, -0.902512, -0.902512 )     1.14369554
  Sum of centres and spreads (  0.000000, -0.000000, -0.000000 )     4.02804141

      7    -0.170E-05     0.0008131105        4.0280414085       0.25  <-- CONV
        O_D=      0.0018898 O_OD=      0.3634601 O_TOT=      4.0280414 <-- SPRD
 Delta: O_D=  0.4466129E-05 O_OD= -0.6169567E-05 O_TOT= -0.1703437E-05 <-- DLTA
 ------------------------------------------------------------------------------
 Cycle:      8
  WF centre and spread    1  ( -0.000000,  0.000000, -0.000000 )     0.40839032
  WF centre and spread    2  ( -0.000000, -0.000000, -0.000000 )     0.30789028
  WF centre and spread    3  ( -0.000000, -0.000000,  0.000000 )     0.30789038
  WF centre and spread    4  ( -0.000000, -0.000000,  0.000000 )     0.40839105
  WF centre and spread    5  (  0.000000, -0.000000, -0.000000 )     0.30788932
  WF centre and spread    6  ( -0.902512,  0.902512,  0.902512 )     1.14379452
  WF centre and spread    7  (  0.902512, -0.902512, -0.902512 )     1.14379455
  Sum of centres and spreads (  0.000000, -0.000000, -0.000000 )     4.02804040

      8    -0.100E-05     0.0005856974        4.0280404041       0.26  <-- CONV
        O_D=      0.0018938 O_OD=      0.3634551 O_TOT=      4.0280404 <-- SPRD
 Delta: O_D=  0.4038503E-05 O_OD= -0.5042925E-05 O_TOT= -0.1004422E-05 <-- DLTA
 ------------------------------------------------------------------------------
 Cycle:      9
  WF centre and spread    1  ( -0.000000,  0.000000, -0.000000 )     0.40838892
  WF centre and spread    2  ( -0.000000, -0.000000, -0.000000 )     0.30786129
  WF centre and spread    3  ( -0.000000, -0.000000,  0.000000 )     0.30786139
  WF centre and spread    4  ( -0.000000, -0.000000,  0.000000 )     0.40838953
  WF centre and spread    5  (  0.000000, -0.000000, -0.000000 )     0.30786043
  WF centre and spread    6  ( -0.902512,  0.902512,  0.902512 )     1.14383927
  WF centre and spread    7  (  0.902512, -0.902512, -0.902512 )     1.14383930
  Sum of centres and spreads (  0.000000, -0.000000, -0.000000 )     4.02804013

      9    -0.273E-06     0.0003443953        4.0280401311       0.26  <-- CONV
        O_D=      0.0018944 O_OD=      0.3634543 O_TOT=      4.0280401 <-- SPRD
 Delta: O_D=  0.5257821E-06 O_OD= -0.7988093E-06 O_TOT= -0.2730272E-06 <-- DLTA
 ------------------------------------------------------------------------------
 Cycle:     10
  WF centre and spread    1  ( -0.000000,  0.000000, -0.000000 )     0.40838871
  WF centre and spread    2  ( -0.000000, -0.000000, -0.000000 )     0.30785082
  WF centre and spread    3  ( -0.000000, -0.000000,  0.000000 )     0.30785092
  WF centre and spread    4  ( -0.000000, -0.000000,  0.000000 )     0.40838918
  WF centre and spread    5  (  0.000000, -0.000000, -0.000000 )     0.30784999
  WF centre and spread    6  ( -0.902512,  0.902512,  0.902512 )     1.14385521
  WF centre and spread    7  (  0.902512, -0.902512, -0.902512 )     1.14385524
  Sum of centres and spreads (  0.000000, -0.000000, -0.000000 )     4.02804006

     10    -0.680E-07     0.0001842775        4.0280400631       0.27  <-- CONV
        O_D=      0.0018943 O_OD=      0.3634542 O_TOT=      4.0280401 <-- SPRD
 Delta: O_D= -0.1239669E-07 O_OD= -0.5560949E-07 O_TOT= -0.6800618E-07 <-- DLTA
 ------------------------------------------------------------------------------
 Cycle:     11
  WF centre and spread    1  ( -0.000000,  0.000000, -0.000000 )     0.40838907
  WF centre and spread    2  ( -0.000000, -0.000000, -0.000000 )     0.30784989
  WF centre and spread    3  ( -0.000000, -0.000000,  0.000000 )     0.30784999
  WF centre and spread    4  ( -0.000000, -0.000000,  0.000000 )     0.40838950
  WF centre and spread    5  (  0.000000, -0.000000, -0.000000 )     0.30784907
  WF centre and spread    6  ( -0.902512,  0.902512,  0.902512 )     1.14385625
  WF centre and spread    7  (  0.902512, -0.902512, -0.902512 )     1.14385628
  Sum of centres and spreads (  0.000000, -0.000000, -0.000000 )     4.02804006

     11    -0.409E-08     0.0000493984        4.0280400590       0.28  <-- CONV
        O_D=      0.0018944 O_OD=      0.3634542 O_TOT=      4.0280401 <-- SPRD
 Delta: O_D=  0.6742282E-07 O_OD= -0.7151586E-07 O_TOT= -0.4093038E-08 <-- DLTA
 ------------------------------------------------------------------------------
 Cycle:     12
  WF centre and spread    1  ( -0.000000,  0.000000, -0.000000 )     0.40838923
  WF centre and spread    2  ( -0.000000, -0.000000, -0.000000 )     0.30784973
  WF centre and spread    3  ( -0.000000, -0.000000,  0.000000 )     0.30784983
  WF centre and spread    4  ( -0.000000, -0.000000,  0.000000 )     0.40838964
  WF centre and spread    5  (  0.000000, -0.000000, -0.000000 )     0.30784890
  WF centre and spread    6  ( -0.902512,  0.902512,  0.902512 )     1.14385635
  WF centre and spread    7  (  0.902512, -0.902512, -0.902512 )     1.14385638
  Sum of centres and spreads (  0.000000, -0.000000, -0.000000 )     4.02804006

     12    -0.503E-09     0.0000192756        4.0280400585       0.28  <-- CONV
        O_D=      0.0018945 O_OD=      0.3634541 O_TOT=      4.0280401 <-- SPRD
 Delta: O_D=  0.4302562E-07 O_OD= -0.4352823E-07 O_TOT= -0.5026122E-09 <-- DLTA
 ------------------------------------------------------------------------------
 Cycle:     13
  WF centre and spread    1  ( -0.000000,  0.000000, -0.000000 )     0.40838926
  WF centre and spread    2  ( -0.000000, -0.000000, -0.000000 )     0.30784972
  WF centre and spread    3  ( -0.000000, -0.000000,  0.000000 )     0.30784982
  WF centre and spread    4  ( -0.000000, -0.000000,  0.000000 )     0.40838968
  WF centre and spread    5  (  0.000000, -0.000000, -0.000000 )     0.30784889
  WF centre and spread    6  ( -0.902512,  0.902512,  0.902512 )     1.14385633
  WF centre and spread    7  (  0.902512, -0.902512, -0.902512 )     1.14385636
  Sum of centres and spreads (  0.000000, -0.000000, -0.000000 )     4.02804006

     13    -0.741E-10     0.0000077930        4.0280400584       0.29  <-- CONV
        O_D=      0.0018945 O_OD=      0.3634541 O_TOT=      4.0280401 <-- SPRD
 Delta: O_D=  0.1167419E-07 O_OD= -0.1174832E-07 O_TOT= -0.7413714E-10 <-- DLTA
 ------------------------------------------------------------------------------
 Cycle:     14
  WF centre and spread    1  ( -0.000000,  0.000000, -0.000000 )     0.40838931
  WF centre and spread    2  ( -0.000000, -0.000000, -0.000000 )     0.30784971
  WF centre and spread    3  ( -0.000000, -0.000000,  0.000000 )     0.30784981
  WF centre and spread    4  ( -0.000000, -0.000000,  0.000000 )     0.40838972
  WF centre and spread    5  (  0.000000, -0.000000, -0.000000 )     0.30784888
  WF centre and spread    6  ( -0.902512,  0.902512,  0.902512 )     1.14385630
  WF centre and spread    7  (  0.902512, -0.902512, -0.902512 )     1.14385633
  Sum of centres and spreads (  0.000000, -0.000000, -0.000000 )     4.02804006

     14    -0.193E-10     0.0000038044        4.0280400584       0.30  <-- CONV
        O_D=      0.0018945 O_OD=      0.3634541 O_TOT=      4.0280401 <-- SPRD
 Delta: O_D=  0.1372811E-07 O_OD= -0.1374740E-07 O_TOT= -0.1928768E-10 <-- DLTA
 ------------------------------------------------------------------------------
 Cycle:     15
  WF centre and spread    1  ( -0.000000,  0.000000, -0.000000 )     0.40838934
  WF centre and spread    2  ( -0.000000, -0.000000, -0.000000 )     0.30784970
  WF centre and spread    3  ( -0.000000, -0.000000,  0.000000 )     0.30784980
  WF centre and spread    4  ( -0.000000, -0.000000,  0.000000 )     0.40838974
  WF centre and spread    5  (  0.000000, -0.000000, -0.000000 )     0.30784887
  WF centre and spread    6  ( -0.902512,  0.902512,  0.902512 )     1.14385629
  WF centre and spread    7  (  0.902512, -0.902512, -0.902512 )     1.14385632
  Sum of centres and spreads (  0.000000, -0.000000, -0.000000 )     4.02804006

     15    -0.236E-11     0.0000020139        4.0280400584       0.31  <-- CONV
        O_D=      0.0018945 O_OD=      0.3634541 O_TOT=      4.0280401 <-- SPRD
 Delta: O_D=  0.4518960E-08 O_OD= -0.4521319E-08 O_TOT= -0.2359002E-11 <-- DLTA
 ------------------------------------------------------------------------------
 Cycle:     16
  WF centre and spread    1  ( -0.000000,  0.000000, -0.000000 )     0.40838934
  WF centre and spread    2  ( -0.000000, -0.000000, -0.000000 )     0.30784970
  WF centre and spread    3  ( -0.000000, -0.000000,  0.000000 )     0.30784980
  WF centre and spread    4  ( -0.000000, -0.000000,  0.000000 )     0.40838974
  WF centre and spread    5  (  0.000000, -0.000000, -0.000000 )     0.30784886
  WF centre and spread    6  ( -0.902512,  0.902512,  0.902512 )     1.14385630
  WF centre and spread    7  (  0.902512, -0.902512, -0.902512 )     1.14385633
  Sum of centres and spreads (  0.000000, -0.000000, -0.000000 )     4.02804006

     16    -0.108E-11     0.0000014149        4.0280400584       0.32  <-- CONV
        O_D=      0.0018945 O_OD=      0.3634541 O_TOT=      4.0280401 <-- SPRD
 Delta: O_D= -0.4050501E-09 O_OD=  0.4039723E-09 O_TOT= -0.1077360E-11 <-- DLTA
 ------------------------------------------------------------------------------
 Cycle:     17
  WF centre and spread    1  ( -0.000000,  0.000000, -0.000000 )     0.40838933
  WF centre and spread    2  ( -0.000000, -0.000000, -0.000000 )     0.30784969
  WF centre and spread    3  ( -0.000000, -0.000000,  0.000000 )     0.30784979
  WF centre and spread    4  ( -0.000000, -0.000000,  0.000000 )     0.40838974
  WF centre and spread    5  (  0.000000, -0.000000, -0.000000 )     0.30784886
  WF centre and spread    6  ( -0.902512,  0.902512,  0.902512 )     1.14385630
  WF centre and spread    7  (  0.902512, -0.902512, -0.902512 )     1.14385633
  Sum of centres and spreads (  0.000000, -0.000000, -0.000000 )     4.02804006

     17    -0.701E-12     0.0000008740        4.0280400584       0.32  <-- CONV
        O_D=      0.0018945 O_OD=      0.3634541 O_TOT=      4.0280401 <-- SPRD
 Delta: O_D= -0.9101814E-09 O_OD=  0.9094804E-09 O_TOT= -0.7007728E-12 <-- DLTA
 ------------------------------------------------------------------------------
 Cycle:     18
  WF centre and spread    1  ( -0.000000,  0.000000, -0.000000 )     0.40838933
  WF centre and spread    2  ( -0.000000, -0.000000, -0.000000 )     0.30784969
  WF centre and spread    3  ( -0.000000, -0.000000,  0.000000 )     0.30784979
  WF centre and spread    4  ( -0.000000, -0.000000,  0.000000 )     0.40838974
  WF centre and spread    5  (  0.000000, -0.000000, -0.000000 )     0.30784886
  WF centre and spread    6  ( -0.902512,  0.902512,  0.902512 )     1.14385630
  WF centre and spread    7  (  0.902512, -0.902512, -0.902512 )     1.14385633
  Sum of centres and spreads (  0.000000, -0.000000, -0.000000 )     4.02804006

     18    -0.237E-12     0.0000005577        4.0280400584       0.33  <-- CONV
        O_D=      0.0018945 O_OD=      0.3634541 O_TOT=      4.0280401 <-- SPRD
 Delta: O_D= -0.5150312E-09 O_OD=  0.5147940E-09 O_TOT= -0.2371436E-12 <-- DLTA
 ------------------------------------------------------------------------------
 Cycle:     19
  WF centre and spread    1  ( -0.000000,  0.000000, -0.000000 )     0.40838933
  WF centre and spread    2  ( -0.000000, -0.000000, -0.000000 )     0.30784969
  WF centre and spread    3  ( -0.000000, -0.000000,  0.000000 )     0.30784979
  WF centre and spread    4  ( -0.000000, -0.000000,  0.000000 )     0.40838974
  WF centre and spread    5  (  0.000000, -0.000000, -0.000000 )     0.30784886
  WF centre and spread    6  ( -0.902512,  0.902512,  0.902512 )     1.14385630
  WF centre and spread    7  (  0.902512, -0.902512, -0.902512 )     1.14385633
  Sum of centres and spreads (  0.000000, -0.000000, -0.000000 )     4.02804006

     19    -0.728E-13     0.0000004788        4.0280400584       0.34  <-- CONV
        O_D=      0.0018945 O_OD=      0.3634541 O_TOT=      4.0280401 <-- SPRD
 Delta: O_D= -0.1444093E-09 O_OD=  0.1443364E-09 O_TOT= -0.7283063E-13 <-- DLTA
 ------------------------------------------------------------------------------
 Cycle:     20
  WF centre and spread    1  ( -0.000000,  0.000000, -0.000000 )     0.40838933
  WF centre and spread    2  ( -0.000000, -0.000000, -0.000000 )     0.30784969
  WF centre and spread    3  ( -0.000000, -0.000000,  0.000000 )     0.30784979
  WF centre and spread    4  ( -0.000000, -0.000000,  0.000000 )     0.40838974
  WF centre and spread    5  (  0.000000, -0.000000, -0.000000 )     0.30784886
  WF centre and spread    6  ( -0.902512,  0.902512,  0.902512 )     1.14385631
  WF centre and spread    7  (  0.902512, -0.902512, -0.902512 )     1.14385634
  Sum of centres and spreads (  0.000000, -0.000000, -0.000000 )     4.02804006

     20    -0.182E-12     0.0000004383        4.0280400584       0.35  <-- CONV
        O_D=      0.0018945 O_OD=      0.3634541 O_TOT=      4.0280401 <-- SPRD
 Delta: O_D= -0.4424751E-09 O_OD=  0.4422932E-09 O_TOT= -0.1820766E-12 <-- DLTA
 ------------------------------------------------------------------------------
 Cycle:     21
  WF centre and spread    1  ( -0.000000,  0.000000, -0.000000 )     0.40838933
  WF centre and spread    2  ( -0.000000, -0.000000, -0.000000 )     0.30784969
  WF centre and spread    3  ( -0.000000, -0.000000,  0.000000 )     0.30784979
  WF centre and spread    4  ( -0.000000, -0.000000,  0.000000 )     0.40838974
  WF centre and spread    5  (  0.000000, -0.000000, -0.000000 )     0.30784886
  WF centre and spread    6  ( -0.902512,  0.902512,  0.902512 )     1.14385631
  WF centre and spread    7  (  0.902512, -0.902512, -0.902512 )     1.14385634
  Sum of centres and spreads (  0.000000, -0.000000, -0.000000 )     4.02804006

     21    -0.275E-13     0.0000003298        4.0280400584       0.35  <-- CONV
        O_D=      0.0018945 O_OD=      0.3634541 O_TOT=      4.0280401 <-- SPRD
 Delta: O_D= -0.7058248E-10 O_OD=  0.7055539E-10 O_TOT= -0.2753353E-13 <-- DLTA
 ------------------------------------------------------------------------------
 Cycle:     22
  WF centre and spread    1  ( -0.000000,  0.000000, -0.000000 )     0.40838933
  WF centre and spread    2  ( -0.000000, -0.000000, -0.000000 )     0.30784969
  WF centre and spread    3  ( -0.000000, -0.000000,  0.000000 )     0.30784979
  WF centre and spread    4  ( -0.000000, -0.000000,  0.000000 )     0.40838973
  WF centre and spread    5  (  0.000000, -0.000000, -0.000000 )     0.30784886
  WF centre and spread    6  ( -0.902512,  0.902512,  0.902512 )     1.14385631
  WF centre and spread    7  (  0.902512, -0.902512, -0.902512 )     1.14385634
  Sum of centres and spreads (  0.000000, -0.000000, -0.000000 )     4.02804006

     22    -0.120E-12     0.0000003153        4.0280400584       0.36  <-- CONV
        O_D=      0.0018945 O_OD=      0.3634541 O_TOT=      4.0280401 <-- SPRD
 Delta: O_D= -0.4431443E-09 O_OD=  0.4430243E-09 O_TOT= -0.1199041E-12 <-- DLTA
 ------------------------------------------------------------------------------
 Cycle:     23
  WF centre and spread    1  ( -0.000000,  0.000000, -0.000000 )     0.40838933
  WF centre and spread    2  ( -0.000000, -0.000000, -0.000000 )     0.30784969
  WF centre and spread    3  ( -0.000000, -0.000000,  0.000000 )     0.30784979
  WF centre and spread    4  ( -0.000000, -0.000000,  0.000000 )     0.40838973
  WF centre and spread    5  (  0.000000, -0.000000, -0.000000 )     0.30784886
  WF centre and spread    6  ( -0.902512,  0.902512,  0.902512 )     1.14385631
  WF centre and spread    7  (  0.902512, -0.902512, -0.902512 )     1.14385634
  Sum of centres and spreads (  0.000000, -0.000000, -0.000000 )     4.02804006

     23    -0.178E-13     0.0000002337        4.0280400584       0.36  <-- CONV
        O_D=      0.0018945 O_OD=      0.3634541 O_TOT=      4.0280401 <-- SPRD
 Delta: O_D= -0.7137220E-10 O_OD=  0.7135414E-10 O_TOT= -0.1776357E-13 <-- DLTA
 ------------------------------------------------------------------------------
 Cycle:     24
  WF centre and spread    1  ( -0.000000,  0.000000, -0.000000 )     0.40838933
  WF centre and spread    2  ( -0.000000, -0.000000, -0.000000 )     0.30784969
  WF centre and spread    3  ( -0.000000, -0.000000,  0.000000 )     0.30784979
  WF centre and spread    4  ( -0.000000, -0.000000,  0.000000 )     0.40838973
  WF centre and spread    5  (  0.000000, -0.000000, -0.000000 )     0.30784886
  WF centre and spread    6  ( -0.902512,  0.902512,  0.902512 )     1.14385631
  WF centre and spread    7  (  0.902512, -0.902512, -0.902512 )     1.14385634
  Sum of centres and spreads (  0.000000, -0.000000, -0.000000 )     4.02804006

     24    -0.195E-13     0.0000002214        4.0280400584       0.37  <-- CONV
        O_D=      0.0018945 O_OD=      0.3634541 O_TOT=      4.0280401 <-- SPRD
 Delta: O_D= -0.8298566E-10 O_OD=  0.8296630E-10 O_TOT= -0.1953993E-13 <-- DLTA
 ------------------------------------------------------------------------------
 Cycle:     25
  WF centre and spread    1  ( -0.000000,  0.000000, -0.000000 )     0.40838933
  WF centre and spread    2  ( -0.000000, -0.000000, -0.000000 )     0.30784969
  WF centre and spread    3  ( -0.000000, -0.000000,  0.000000 )     0.30784979
  WF centre and spread    4  ( -0.000000, -0.000000,  0.000000 )     0.40838973
  WF centre and spread    5  (  0.000000, -0.000000, -0.000000 )     0.30784886
  WF centre and spread    6  ( -0.902512,  0.902512,  0.902512 )     1.14385631
  WF centre and spread    7  (  0.902512, -0.902512, -0.902512 )     1.14385634
  Sum of centres and spreads (  0.000000, -0.000000, -0.000000 )     4.02804006

     25    -0.266E-14     0.0000002065        4.0280400584       0.38  <-- CONV
        O_D=      0.0018945 O_OD=      0.3634541 O_TOT=      4.0280401 <-- SPRD
 Delta: O_D= -0.1553629E-10 O_OD=  0.1553335E-10 O_TOT= -0.2664535E-14 <-- DLTA
 ------------------------------------------------------------------------------
 Cycle:     26
  WF centre and spread    1  ( -0.000000,  0.000000, -0.000000 )     0.40838933
  WF centre and spread    2  ( -0.000000, -0.000000, -0.000000 )     0.30784969
  WF centre and spread    3  ( -0.000000, -0.000000,  0.000000 )     0.30784979
  WF centre and spread    4  ( -0.000000, -0.000000,  0.000000 )     0.40838973
  WF centre and spread    5  (  0.000000, -0.000000, -0.000000 )     0.30784886
  WF centre and spread    6  ( -0.902512,  0.902512,  0.902512 )     1.14385631
  WF centre and spread    7  (  0.902512, -0.902512, -0.902512 )     1.14385634
  Sum of centres and spreads (  0.000000, -0.000000, -0.000000 )     4.02804006

     26    -0.169E-13     0.0000002031        4.0280400584       0.38  <-- CONV
        O_D=      0.0018945 O_OD=      0.3634541 O_TOT=      4.0280401 <-- SPRD
 Delta: O_D= -0.8603122E-10 O_OD=  0.8601497E-10 O_TOT= -0.1687539E-13 <-- DLTA
 ------------------------------------------------------------------------------
 Cycle:     27
  WF centre and spread    1  ( -0.000000,  0.000000, -0.000000 )     0.40838933
  WF centre and spread    2  ( -0.000000, -0.000000, -0.000000 )     0.30784969
  WF centre and spread    3  ( -0.000000, -0.000000,  0.000000 )     0.30784979
  WF centre and spread    4  ( -0.000000, -0.000000,  0.000000 )     0.40838973
  WF centre and spread    5  (  0.000000, -0.000000, -0.000000 )     0.30784886
  WF centre and spread    6  ( -0.902512,  0.902512,  0.902512 )     1.14385631
  WF centre and spread    7  (  0.902512, -0.902512, -0.902512 )     1.14385634
  Sum of centres and spreads (  0.000000, -0.000000, -0.000000 )     4.02804006

     27    -0.977E-14     0.0000001846        4.0280400584       0.39  <-- CONV
        O_D=      0.0018945 O_OD=      0.3634541 O_TOT=      4.0280401 <-- SPRD
 Delta: O_D= -0.4350342E-10 O_OD=  0.4349371E-10 O_TOT= -0.9769963E-14 <-- DLTA
 ------------------------------------------------------------------------------
 Cycle:     28
  WF centre and spread    1  ( -0.000000,  0.000000, -0.000000 )     0.40838933
  WF centre and spread    2  ( -0.000000, -0.000000, -0.000000 )     0.30784969
  WF centre and spread    3  ( -0.000000, -0.000000,  0.000000 )     0.30784979
  WF centre and spread    4  ( -0.000000, -0.000000,  0.000000 )     0.40838973
  WF centre and spread    5  (  0.000000, -0.000000, -0.000000 )     0.30784886
  WF centre and spread    6  ( -0.902512,  0.902512,  0.902512 )     1.14385631
  WF centre and spread    7  (  0.902512, -0.902512, -0.902512 )     1.14385634
  Sum of centres and spreads (  0.000000, -0.000000, -0.000000 )     4.02804006

     28    -0.107E-13     0.0000001756        4.0280400584       0.39  <-- CONV
        O_D=      0.0018945 O_OD=      0.3634541 O_TOT=      4.0280401 <-- SPRD
 Delta: O_D= -0.5396488E-10 O_OD=  0.5395423E-10 O_TOT= -0.1065814E-13 <-- DLTA
 ------------------------------------------------------------------------------
 Cycle:     29
  WF centre and spread    1  ( -0.000000,  0.000000, -0.000000 )     0.40838933
  WF centre and spread    2  ( -0.000000, -0.000000, -0.000000 )     0.30784969
  WF centre and spread    3  ( -0.000000, -0.000000,  0.000000 )     0.30784979
  WF centre and spread    4  ( -0.000000, -0.000000,  0.000000 )     0.40838973
  WF centre and spread    5  (  0.000000, -0.000000, -0.000000 )     0.30784886
  WF centre and spread    6  ( -0.902512,  0.902512,  0.902512 )     1.14385631
  WF centre and spread    7  (  0.902512, -0.902512, -0.902512 )     1.14385634
  Sum of centres and spreads (  0.000000, -0.000000, -0.000000 )     4.02804006

     29    -0.160E-13     0.0000001645        4.0280400584       0.40  <-- CONV
        O_D=      0.0018945 O_OD=      0.3634541 O_TOT=      4.0280401 <-- SPRD
 Delta: O_D= -0.1034983E-09 O_OD=  0.1034816E-09 O_TOT= -0.1598721E-13 <-- DLTA
 ------------------------------------------------------------------------------
 Cycle:     30
  WF centre and spread    1  ( -0.000000,  0.000000, -0.000000 )     0.40838933
  WF centre and spread    2  ( -0.000000, -0.000000, -0.000000 )     0.30784969
  WF centre and spread    3  ( -0.000000, -0.000000,  0.000000 )     0.30784979
  WF centre and spread    4  ( -0.000000, -0.000000,  0.000000 )     0.40838973
  WF centre and spread    5  (  0.000000, -0.000000, -0.000000 )     0.30784886
  WF centre and spread    6  ( -0.902512,  0.902512,  0.902512 )     1.14385631
  WF centre and spread    7  (  0.902512, -0.902512, -0.902512 )     1.14385634
  Sum of centres and spreads (  0.000000, -0.000000, -0.000000 )     4.02804006

     30    -0.133E-13     0.0000001440        4.0280400584       0.40  <-- CONV
        O_D=      0.0018945 O_OD=      0.3634541 O_TOT=      4.0280401 <-- SPRD
 Delta: O_D= -0.5832823E-10 O_OD=  0.5831569E-10 O_TOT= -0.1332268E-13 <-- DLTA
 ------------------------------------------------------------------------------
 Cycle:     31
  WF centre and spread    1  ( -0.000000,  0.000000, -0.000000 )     0.40838933
  WF centre and spread    2  ( -0.000000, -0.000000, -0.000000 )     0.30784969
  WF centre and spread    3  ( -0.000000, -0.000000,  0.000000 )     0.30784979
  WF centre and spread    4  ( -0.000000, -0.000000,  0.000000 )     0.40838973
  WF centre and spread    5  (  0.000000, -0.000000, -0.000000 )     0.30784886
  WF centre and spread    6  ( -0.902512,  0.902512,  0.902512 )     1.14385631
  WF centre and spread    7  (  0.902512, -0.902512, -0.902512 )     1.14385634
  Sum of centres and spreads (  0.000000, -0.000000, -0.000000 )     4.02804006

     31     0.266E-14     0.0000001327        4.0280400584       0.41  <-- CONV
        O_D=      0.0018945 O_OD=      0.3634541 O_TOT=      4.0280401 <-- SPRD
 Delta: O_D= -0.1675664E-11 O_OD=  0.1677658E-11 O_TOT=  0.2664535E-14 <-- DLTA
 ------------------------------------------------------------------------------
 Cycle:     32
  WF centre and spread    1  ( -0.000000,  0.000000, -0.000000 )     0.40838933
  WF centre and spread    2  ( -0.000000, -0.000000, -0.000000 )     0.30784969
  WF centre and spread    3  ( -0.000000, -0.000000,  0.000000 )     0.30784979
  WF centre and spread    4  ( -0.000000, -0.000000,  0.000000 )     0.40838973
  WF centre and spread    5  (  0.000000, -0.000000, -0.000000 )     0.30784886
  WF centre and spread    6  ( -0.902512,  0.902512,  0.902512 )     1.14385631
  WF centre and spread    7  (  0.902512, -0.902512, -0.902512 )     1.14385634
  Sum of centres and spreads (  0.000000, -0.000000, -0.000000 )     4.02804006

     32    -0.266E-14     0.0000001324        4.0280400584       0.42  <-- CONV
        O_D=      0.0018945 O_OD=      0.3634541 O_TOT=      4.0280401 <-- SPRD
 Delta: O_D= -0.2089996E-10 O_OD=  0.2089756E-10 O_TOT= -0.2664535E-14 <-- DLTA
 ------------------------------------------------------------------------------
 Cycle:     33
  WF centre and spread    1  ( -0.000000,  0.000000, -0.000000 )     0.40838933
  WF centre and spread    2  ( -0.000000, -0.000000, -0.000000 )     0.30784969
  WF centre and spread    3  ( -0.000000, -0.000000,  0.000000 )     0.30784979
  WF centre and spread    4  ( -0.000000, -0.000000,  0.000000 )     0.40838973
  WF centre and spread    5  (  0.000000, -0.000000, -0.000000 )     0.30784886
  WF centre and spread    6  ( -0.902512,  0.902512,  0.902512 )     1.14385631
  WF centre and spread    7  (  0.902512, -0.902512, -0.902512 )     1.14385634
  Sum of centres and spreads (  0.000000, -0.000000, -0.000000 )     4.02804006

     33    -0.266E-14     0.0000001281        4.0280400584       0.42  <-- CONV
        O_D=      0.0018945 O_OD=      0.3634541 O_TOT=      4.0280401 <-- SPRD
 Delta: O_D= -0.2427994E-10 O_OD=  0.2427691E-10 O_TOT= -0.2664535E-14 <-- DLTA
 ------------------------------------------------------------------------------
 Cycle:     34
  WF centre and spread    1  ( -0.000000,  0.000000, -0.000000 )     0.40838932
  WF centre and spread    2  ( -0.000000, -0.000000, -0.000000 )     0.30784969
  WF centre and spread    3  ( -0.000000, -0.000000,  0.000000 )     0.30784979
  WF centre and spread    4  ( -0.000000, -0.000000,  0.000000 )     0.40838973
  WF centre and spread    5  (  0.000000, -0.000000, -0.000000 )     0.30784886
  WF centre and spread    6  ( -0.902512,  0.902512,  0.902512 )     1.14385631
  WF centre and spread    7  (  0.902512, -0.902512, -0.902512 )     1.14385634
  Sum of centres and spreads (  0.000000, -0.000000, -0.000000 )     4.02804006

     34    -0.977E-14     0.0000001232        4.0280400584       0.43  <-- CONV
        O_D=      0.0018945 O_OD=      0.3634541 O_TOT=      4.0280401 <-- SPRD
 Delta: O_D= -0.3696133E-10 O_OD=  0.3695233E-10 O_TOT= -0.9769963E-14 <-- DLTA
 ------------------------------------------------------------------------------
 Cycle:     35
  WF centre and spread    1  ( -0.000000,  0.000000, -0.000000 )     0.40838932
  WF centre and spread    2  ( -0.000000, -0.000000, -0.000000 )     0.30784969
  WF centre and spread    3  ( -0.000000, -0.000000,  0.000000 )     0.30784979
  WF centre and spread    4  ( -0.000000, -0.000000,  0.000000 )     0.40838973
  WF centre and spread    5  (  0.000000, -0.000000, -0.000000 )     0.30784886
  WF centre and spread    6  ( -0.902512,  0.902512,  0.902512 )     1.14385631
  WF centre and spread    7  (  0.902512, -0.902512, -0.902512 )     1.14385634
  Sum of centres and spreads (  0.000000, -0.000000, -0.000000 )     4.02804006

     35    -0.533E-14     0.0000001156        4.0280400584       0.43  <-- CONV
        O_D=      0.0018945 O_OD=      0.3634541 O_TOT=      4.0280401 <-- SPRD
 Delta: O_D= -0.4142168E-10 O_OD=  0.4141576E-10 O_TOT= -0.5329071E-14 <-- DLTA
 ------------------------------------------------------------------------------
 Cycle:     36
  WF centre and spread    1  ( -0.000000,  0.000000, -0.000000 )     0.40838932
  WF centre and spread    2  ( -0.000000, -0.000000, -0.000000 )     0.30784969
  WF centre and spread    3  ( -0.000000, -0.000000,  0.000000 )     0.30784979
  WF centre and spread    4  ( -0.000000, -0.000000,  0.000000 )     0.40838973
  WF centre and spread    5  (  0.000000, -0.000000, -0.000000 )     0.30784886
  WF centre and spread    6  ( -0.902512,  0.902512,  0.902512 )     1.14385631
  WF centre and spread    7  (  0.902512, -0.902512, -0.902512 )     1.14385634
  Sum of centres and spreads (  0.000000, -0.000000, -0.000000 )     4.02804006

     36    -0.178E-14     0.0000001071        4.0280400584       0.44  <-- CONV
        O_D=      0.0018945 O_OD=      0.3634541 O_TOT=      4.0280401 <-- SPRD
 Delta: O_D= -0.5791370E-10 O_OD=  0.5791190E-10 O_TOT= -0.1776357E-14 <-- DLTA
 ------------------------------------------------------------------------------
 Cycle:     37
  WF centre and spread    1  ( -0.000000,  0.000000, -0.000000 )     0.40838932
  WF centre and spread    2  ( -0.000000, -0.000000, -0.000000 )     0.30784969
  WF centre and spread    3  ( -0.000000, -0.000000,  0.000000 )     0.30784979
  WF centre and spread    4  ( -0.000000, -0.000000,  0.000000 )     0.40838973
  WF centre and spread    5  (  0.000000, -0.000000, -0.000000 )     0.30784886
  WF centre and spread    6  ( -0.902512,  0.902512,  0.902512 )     1.14385631
  WF centre and spread    7  (  0.902512, -0.902512, -0.902512 )     1.14385634
  Sum of centres and spreads (  0.000000, -0.000000, -0.000000 )     4.02804006

     37    -0.178E-14     0.0000000952        4.0280400584       0.44  <-- CONV
        O_D=      0.0018945 O_OD=      0.3634541 O_TOT=      4.0280401 <-- SPRD
 Delta: O_D= -0.6909102E-11 O_OD=  0.6907419E-11 O_TOT= -0.1776357E-14 <-- DLTA
 ------------------------------------------------------------------------------
 Cycle:     38
  WF centre and spread    1  ( -0.000000,  0.000000, -0.000000 )     0.40838932
  WF centre and spread    2  ( -0.000000, -0.000000, -0.000000 )     0.30784969
  WF centre and spread    3  ( -0.000000, -0.000000,  0.000000 )     0.30784979
  WF centre and spread    4  ( -0.000000, -0.000000,  0.000000 )     0.40838973
  WF centre and spread    5  (  0.000000, -0.000000, -0.000000 )     0.30784886
  WF centre and spread    6  ( -0.902512,  0.902512,  0.902512 )     1.14385631
  WF centre and spread    7  (  0.902512, -0.902512, -0.902512 )     1.14385634
  Sum of centres and spreads (  0.000000, -0.000000, -0.000000 )     4.02804006

     38    -0.266E-14     0.0000000937        4.0280400584       0.45  <-- CONV
        O_D=      0.0018945 O_OD=      0.3634541 O_TOT=      4.0280401 <-- SPRD
 Delta: O_D= -0.1346261E-10 O_OD=  0.1345973E-10 O_TOT= -0.2664535E-14 <-- DLTA
 ------------------------------------------------------------------------------
 Cycle:     39
  WF centre and spread    1  ( -0.000000,  0.000000, -0.000000 )     0.40838932
  WF centre and spread    2  ( -0.000000, -0.000000, -0.000000 )     0.30784969
  WF centre and spread    3  ( -0.000000, -0.000000,  0.000000 )     0.30784979
  WF centre and spread    4  ( -0.000000, -0.000000,  0.000000 )     0.40838973
  WF centre and spread    5  (  0.000000, -0.000000, -0.000000 )     0.30784886
  WF centre and spread    6  ( -0.902512,  0.902512,  0.902512 )     1.14385632
  WF centre and spread    7  (  0.902512, -0.902512, -0.902512 )     1.14385634
  Sum of centres and spreads (  0.000000, -0.000000, -0.000000 )     4.02804006

     39    -0.888E-14     0.0000000907        4.0280400584       0.46  <-- CONV
        O_D=      0.0018945 O_OD=      0.3634541 O_TOT=      4.0280401 <-- SPRD
 Delta: O_D= -0.1913088E-10 O_OD=  0.1912231E-10 O_TOT= -0.8881784E-14 <-- DLTA
 ------------------------------------------------------------------------------
 Cycle:     40
  WF centre and spread    1  ( -0.000000,  0.000000, -0.000000 )     0.40838932
  WF centre and spread    2  ( -0.000000, -0.000000, -0.000000 )     0.30784969
  WF centre and spread    3  ( -0.000000, -0.000000,  0.000000 )     0.30784979
  WF centre and spread    4  ( -0.000000, -0.000000,  0.000000 )     0.40838973
  WF centre and spread    5  (  0.000000, -0.000000, -0.000000 )     0.30784886
  WF centre and spread    6  ( -0.902512,  0.902512,  0.902512 )     1.14385632
  WF centre and spread    7  (  0.902512, -0.902512, -0.902512 )     1.14385634
  Sum of centres and spreads (  0.000000, -0.000000, -0.000000 )     4.02804006

     40     0.533E-14     0.0000000865        4.0280400584       0.46  <-- CONV
        O_D=      0.0018945 O_OD=      0.3634541 O_TOT=      4.0280401 <-- SPRD
 Delta: O_D= -0.3546760E-11 O_OD=  0.3552103E-11 O_TOT=  0.5329071E-14 <-- DLTA
 ------------------------------------------------------------------------------
 Cycle:     41
  WF centre and spread    1  ( -0.000000,  0.000000, -0.000000 )     0.40838932
  WF centre and spread    2  ( -0.000000, -0.000000, -0.000000 )     0.30784969
  WF centre and spread    3  ( -0.000000, -0.000000,  0.000000 )     0.30784979
  WF centre and spread    4  ( -0.000000, -0.000000,  0.000000 )     0.40838973
  WF centre and spread    5  (  0.000000, -0.000000, -0.000000 )     0.30784886
  WF centre and spread    6  ( -0.902512,  0.902512,  0.902512 )     1.14385632
  WF centre and spread    7  (  0.902512, -0.902512, -0.902512 )     1.14385634
  Sum of centres and spreads (  0.000000, -0.000000, -0.000000 )     4.02804006

     41    -0.266E-14     0.0000000858        4.0280400584       0.47  <-- CONV
        O_D=      0.0018945 O_OD=      0.3634541 O_TOT=      4.0280401 <-- SPRD
 Delta: O_D= -0.2914412E-10 O_OD=  0.2914119E-10 O_TOT= -0.2664535E-14 <-- DLTA
 ------------------------------------------------------------------------------
 Cycle:     42
  WF centre and spread    1  ( -0.000000,  0.000000, -0.000000 )     0.40838932
  WF centre and spread    2  ( -0.000000, -0.000000, -0.000000 )     0.30784969
  WF centre and spread    3  ( -0.000000, -0.000000,  0.000000 )     0.30784979
  WF centre and spread    4  ( -0.000000, -0.000000,  0.000000 )     0.40838973
  WF centre and spread    5  (  0.000000, -0.000000, -0.000000 )     0.30784886
  WF centre and spread    6  ( -0.902512,  0.902512,  0.902512 )     1.14385632
  WF centre and spread    7  (  0.902512, -0.902512, -0.902512 )     1.14385634
  Sum of centres and spreads (  0.000000, -0.000000, -0.000000 )     4.02804006

     42    -0.444E-14     0.0000000793        4.0280400584       0.47  <-- CONV
        O_D=      0.0018945 O_OD=      0.3634541 O_TOT=      4.0280401 <-- SPRD
 Delta: O_D= -0.3039806E-10 O_OD=  0.3039441E-10 O_TOT= -0.4440892E-14 <-- DLTA
 ------------------------------------------------------------------------------
 Cycle:     43
  WF centre and spread    1  ( -0.000000,  0.000000, -0.000000 )     0.40838932
  WF centre and spread    2  ( -0.000000, -0.000000, -0.000000 )     0.30784969
  WF centre and spread    3  ( -0.000000, -0.000000,  0.000000 )     0.30784979
  WF centre and spread    4  ( -0.000000, -0.000000,  0.000000 )     0.40838973
  WF centre and spread    5  (  0.000000, -0.000000, -0.000000 )     0.30784886
  WF centre and spread    6  ( -0.902512,  0.902512,  0.902512 )     1.14385632
  WF centre and spread    7  (  0.902512, -0.902512, -0.902512 )     1.14385635
  Sum of centres and spreads (  0.000000, -0.000000, -0.000000 )     4.02804006

     43     0.000E+00     0.0000000726        4.0280400584       0.48  <-- CONV
        O_D=      0.0018945 O_OD=      0.3634541 O_TOT=      4.0280401 <-- SPRD
 Delta: O_D= -0.4845241E-11 O_OD=  0.4844902E-11 O_TOT=  0.0000000E+00 <-- DLTA
 ------------------------------------------------------------------------------
 Cycle:     44
  WF centre and spread    1  ( -0.000000,  0.000000, -0.000000 )     0.40838932
  WF centre and spread    2  ( -0.000000, -0.000000, -0.000000 )     0.30784969
  WF centre and spread    3  ( -0.000000, -0.000000,  0.000000 )     0.30784979
  WF centre and spread    4  ( -0.000000, -0.000000,  0.000000 )     0.40838973
  WF centre and spread    5  (  0.000000, -0.000000, -0.000000 )     0.30784886
  WF centre and spread    6  ( -0.902512,  0.902512,  0.902512 )     1.14385632
  WF centre and spread    7  (  0.902512, -0.902512, -0.902512 )     1.14385635
  Sum of centres and spreads (  0.000000, -0.000000, -0.000000 )     4.02804006

     44    -0.266E-14     0.0000000715        4.0280400584       0.48  <-- CONV
        O_D=      0.0018945 O_OD=      0.3634541 O_TOT=      4.0280401 <-- SPRD
 Delta: O_D= -0.9440370E-11 O_OD=  0.9437784E-11 O_TOT= -0.2664535E-14 <-- DLTA
 ------------------------------------------------------------------------------
 Cycle:     45
  WF centre and spread    1  ( -0.000000,  0.000000, -0.000000 )     0.40838932
  WF centre and spread    2  ( -0.000000, -0.000000, -0.000000 )     0.30784969
  WF centre and spread    3  ( -0.000000, -0.000000,  0.000000 )     0.30784979
  WF centre and spread    4  ( -0.000000, -0.000000,  0.000000 )     0.40838973
  WF centre and spread    5  (  0.000000, -0.000000, -0.000000 )     0.30784886
  WF centre and spread    6  ( -0.902512,  0.902512,  0.902512 )     1.14385632
  WF centre and spread    7  (  0.902512, -0.902512, -0.902512 )     1.14385635
  Sum of centres and spreads (  0.000000, -0.000000, -0.000000 )     4.02804006

     45    -0.888E-15     0.0000000693        4.0280400584       0.48  <-- CONV
        O_D=      0.0018945 O_OD=      0.3634541 O_TOT=      4.0280401 <-- SPRD
 Delta: O_D= -0.1341514E-10 O_OD=  0.1341416E-10 O_TOT= -0.8881784E-15 <-- DLTA
 ------------------------------------------------------------------------------
 Cycle:     46
  WF centre and spread    1  ( -0.000000,  0.000000, -0.000000 )     0.40838932
  WF centre and spread    2  ( -0.000000, -0.000000, -0.000000 )     0.30784969
  WF centre and spread    3  ( -0.000000, -0.000000,  0.000000 )     0.30784979
  WF centre and spread    4  ( -0.000000, -0.000000,  0.000000 )     0.40838973
  WF centre and spread    5  (  0.000000, -0.000000, -0.000000 )     0.30784886
  WF centre and spread    6  ( -0.902512,  0.902512,  0.902512 )     1.14385632
  WF centre and spread    7  (  0.902512, -0.902512, -0.902512 )     1.14385635
  Sum of centres and spreads (  0.000000, -0.000000, -0.000000 )     4.02804006

     46    -0.444E-14     0.0000000661        4.0280400584       0.49  <-- CONV
        O_D=      0.0018945 O_OD=      0.3634541 O_TOT=      4.0280401 <-- SPRD
 Delta: O_D= -0.1649398E-10 O_OD=  0.1648903E-10 O_TOT= -0.4440892E-14 <-- DLTA
 ------------------------------------------------------------------------------
 Cycle:     47
  WF centre and spread    1  ( -0.000000,  0.000000, -0.000000 )     0.40838932
  WF centre and spread    2  ( -0.000000, -0.000000, -0.000000 )     0.30784969
  WF centre and spread    3  ( -0.000000, -0.000000,  0.000000 )     0.30784979
  WF centre and spread    4  ( -0.000000, -0.000000,  0.000000 )     0.40838973
  WF centre and spread    5  (  0.000000, -0.000000, -0.000000 )     0.30784886
  WF centre and spread    6  ( -0.902512,  0.902512,  0.902512 )     1.14385632
  WF centre and spread    7  (  0.902512, -0.902512, -0.902512 )     1.14385635
  Sum of centres and spreads (  0.000000, -0.000000, -0.000000 )     4.02804006

     47     0.178E-14     0.0000000622        4.0280400584       0.50  <-- CONV
        O_D=      0.0018945 O_OD=      0.3634541 O_TOT=      4.0280401 <-- SPRD
 Delta: O_D= -0.6054394E-11 O_OD=  0.6056988E-11 O_TOT=  0.1776357E-14 <-- DLTA
 ------------------------------------------------------------------------------
 Cycle:     48
  WF centre and spread    1  ( -0.000000,  0.000000, -0.000000 )     0.40838932
  WF centre and spread    2  ( -0.000000, -0.000000, -0.000000 )     0.30784969
  WF centre and spread    3  ( -0.000000, -0.000000,  0.000000 )     0.30784979
  WF centre and spread    4  ( -0.000000, -0.000000,  0.000000 )     0.40838973
  WF centre and spread    5  (  0.000000, -0.000000, -0.000000 )     0.30784886
  WF centre and spread    6  ( -0.902512,  0.902512,  0.902512 )     1.14385632
  WF centre and spread    7  (  0.902512, -0.902512, -0.902512 )     1.14385635
  Sum of centres and spreads (  0.000000, -0.000000, -0.000000 )     4.02804006

     48    -0.355E-14     0.0000000608        4.0280400584       0.50  <-- CONV
        O_D=      0.0018945 O_OD=      0.3634541 O_TOT=      4.0280401 <-- SPRD
 Delta: O_D= -0.2149568E-10 O_OD=  0.2149170E-10 O_TOT= -0.3552714E-14 <-- DLTA
 ------------------------------------------------------------------------------
 Cycle:     49
  WF centre and spread    1  ( -0.000000,  0.000000, -0.000000 )     0.40838932
  WF centre and spread    2  ( -0.000000, -0.000000, -0.000000 )     0.30784969
  WF centre and spread    3  ( -0.000000, -0.000000,  0.000000 )     0.30784979
  WF centre and spread    4  ( -0.000000, -0.000000,  0.000000 )     0.40838973
  WF centre and spread    5  (  0.000000, -0.000000, -0.000000 )     0.30784886
  WF centre and spread    6  ( -0.902512,  0.902512,  0.902512 )     1.14385632
  WF centre and spread    7  (  0.902512, -0.902512, -0.902512 )     1.14385635
  Sum of centres and spreads (  0.000000, -0.000000, -0.000000 )     4.02804006

     49     0.178E-14     0.0000000556        4.0280400584       0.51  <-- CONV
        O_D=      0.0018945 O_OD=      0.3634541 O_TOT=      4.0280401 <-- SPRD
 Delta: O_D= -0.1662624E-12 O_OD=  0.1682543E-12 O_TOT=  0.1776357E-14 <-- DLTA
 ------------------------------------------------------------------------------
 Cycle:     50
  WF centre and spread    1  ( -0.000000,  0.000000, -0.000000 )     0.40838932
  WF centre and spread    2  ( -0.000000, -0.000000, -0.000000 )     0.30784969
  WF centre and spread    3  ( -0.000000, -0.000000,  0.000000 )     0.30784979
  WF centre and spread    4  ( -0.000000, -0.000000,  0.000000 )     0.40838973
  WF centre and spread    5  (  0.000000, -0.000000, -0.000000 )     0.30784886
  WF centre and spread    6  ( -0.902512,  0.902512,  0.902512 )     1.14385632
  WF centre and spread    7  (  0.902512, -0.902512, -0.902512 )     1.14385635
  Sum of centres and spreads (  0.000000, -0.000000, -0.000000 )     4.02804006

     50    -0.888E-15     0.0000000556        4.0280400584       0.52  <-- CONV
        O_D=      0.0018945 O_OD=      0.3634541 O_TOT=      4.0280401 <-- SPRD
 Delta: O_D= -0.6703921E-11 O_OD=  0.6702472E-11 O_TOT= -0.8881784E-15 <-- DLTA
 ------------------------------------------------------------------------------
 Cycle:     51
  WF centre and spread    1  ( -0.000000,  0.000000, -0.000000 )     0.40838932
  WF centre and spread    2  ( -0.000000, -0.000000, -0.000000 )     0.30784969
  WF centre and spread    3  ( -0.000000, -0.000000,  0.000000 )     0.30784979
  WF centre and spread    4  ( -0.000000, -0.000000,  0.000000 )     0.40838973
  WF centre and spread    5  (  0.000000, -0.000000, -0.000000 )     0.30784886
  WF centre and spread    6  ( -0.902512,  0.902512,  0.902512 )     1.14385632
  WF centre and spread    7  (  0.902512, -0.902512, -0.902512 )     1.14385635
  Sum of centres and spreads (  0.000000, -0.000000, -0.000000 )     4.02804006

     51    -0.888E-15     0.0000000539        4.0280400584       0.52  <-- CONV
        O_D=      0.0018945 O_OD=      0.3634541 O_TOT=      4.0280401 <-- SPRD
 Delta: O_D= -0.9507628E-11 O_OD=  0.9507117E-11 O_TOT= -0.8881784E-15 <-- DLTA
 ------------------------------------------------------------------------------
 Cycle:     52
  WF centre and spread    1  ( -0.000000,  0.000000, -0.000000 )     0.40838932
  WF centre and spread    2  ( -0.000000, -0.000000, -0.000000 )     0.30784969
  WF centre and spread    3  ( -0.000000, -0.000000,  0.000000 )     0.30784979
  WF centre and spread    4  ( -0.000000, -0.000000,  0.000000 )     0.40838973
  WF centre and spread    5  (  0.000000, -0.000000, -0.000000 )     0.30784886
  WF centre and spread    6  ( -0.902512,  0.902512,  0.902512 )     1.14385632
  WF centre and spread    7  (  0.902512, -0.902512, -0.902512 )     1.14385635
  Sum of centres and spreads (  0.000000, -0.000000, -0.000000 )     4.02804006

     52     0.000E+00     0.0000000515        4.0280400584       0.53  <-- CONV
        O_D=      0.0018945 O_OD=      0.3634541 O_TOT=      4.0280401 <-- SPRD
 Delta: O_D= -0.2039682E-11 O_OD=  0.2039313E-11 O_TOT=  0.0000000E+00 <-- DLTA
 ------------------------------------------------------------------------------
 Cycle:     53
  WF centre and spread    1  ( -0.000000,  0.000000, -0.000000 )     0.40838932
  WF centre and spread    2  ( -0.000000, -0.000000, -0.000000 )     0.30784969
  WF centre and spread    3  ( -0.000000, -0.000000,  0.000000 )     0.30784979
  WF centre and spread    4  ( -0.000000, -0.000000,  0.000000 )     0.40838973
  WF centre and spread    5  (  0.000000, -0.000000, -0.000000 )     0.30784886
  WF centre and spread    6  ( -0.902512,  0.902512,  0.902512 )     1.14385632
  WF centre and spread    7  (  0.902512, -0.902512, -0.902512 )     1.14385635
  Sum of centres and spreads (  0.000000, -0.000000, -0.000000 )     4.02804006

     53     0.888E-15     0.0000000509        4.0280400584       0.54  <-- CONV
        O_D=      0.0018945 O_OD=      0.3634541 O_TOT=      4.0280401 <-- SPRD
 Delta: O_D= -0.2860162E-11 O_OD=  0.2861433E-11 O_TOT=  0.8881784E-15 <-- DLTA
 ------------------------------------------------------------------------------
 Cycle:     54
  WF centre and spread    1  ( -0.000000,  0.000000, -0.000000 )     0.40838932
  WF centre and spread    2  ( -0.000000, -0.000000, -0.000000 )     0.30784969
  WF centre and spread    3  ( -0.000000, -0.000000,  0.000000 )     0.30784979
  WF centre and spread    4  ( -0.000000, -0.000000,  0.000000 )     0.40838973
  WF centre and spread    5  (  0.000000, -0.000000, -0.000000 )     0.30784886
  WF centre and spread    6  ( -0.902512,  0.902512,  0.902512 )     1.14385632
  WF centre and spread    7  (  0.902512, -0.902512, -0.902512 )     1.14385635
  Sum of centres and spreads (  0.000000, -0.000000, -0.000000 )     4.02804006

     54    -0.888E-15     0.0000000502        4.0280400584       0.54  <-- CONV
        O_D=      0.0018945 O_OD=      0.3634541 O_TOT=      4.0280401 <-- SPRD
 Delta: O_D= -0.8442162E-11 O_OD=  0.8441636E-11 O_TOT= -0.8881784E-15 <-- DLTA
 ------------------------------------------------------------------------------
 Cycle:     55
  WF centre and spread    1  ( -0.000000,  0.000000, -0.000000 )     0.40838932
  WF centre and spread    2  ( -0.000000, -0.000000, -0.000000 )     0.30784969
  WF centre and spread    3  ( -0.000000, -0.000000,  0.000000 )     0.30784979
  WF centre and spread    4  ( -0.000000, -0.000000,  0.000000 )     0.40838973
  WF centre and spread    5  (  0.000000, -0.000000, -0.000000 )     0.30784886
  WF centre and spread    6  ( -0.902512,  0.902512,  0.902512 )     1.14385632
  WF centre and spread    7  (  0.902512, -0.902512, -0.902512 )     1.14385635
  Sum of centres and spreads (  0.000000, -0.000000, -0.000000 )     4.02804006

     55    -0.888E-15     0.0000000480        4.0280400584       0.55  <-- CONV
        O_D=      0.0018945 O_OD=      0.3634541 O_TOT=      4.0280401 <-- SPRD
 Delta: O_D= -0.2715821E-11 O_OD=  0.2714440E-11 O_TOT= -0.8881784E-15 <-- DLTA
 ------------------------------------------------------------------------------
 Cycle:     56
  WF centre and spread    1  ( -0.000000,  0.000000, -0.000000 )     0.40838932
  WF centre and spread    2  ( -0.000000, -0.000000, -0.000000 )     0.30784969
  WF centre and spread    3  ( -0.000000, -0.000000,  0.000000 )     0.30784979
  WF centre and spread    4  ( -0.000000, -0.000000,  0.000000 )     0.40838973
  WF centre and spread    5  (  0.000000, -0.000000, -0.000000 )     0.30784886
  WF centre and spread    6  ( -0.902512,  0.902512,  0.902512 )     1.14385632
  WF centre and spread    7  (  0.902512, -0.902512, -0.902512 )     1.14385635
  Sum of centres and spreads (  0.000000, -0.000000, -0.000000 )     4.02804006

     56     0.178E-14     0.0000000473        4.0280400584       0.56  <-- CONV
        O_D=      0.0018945 O_OD=      0.3634541 O_TOT=      4.0280401 <-- SPRD
 Delta: O_D= -0.8493926E-12 O_OD=  0.8510415E-12 O_TOT=  0.1776357E-14 <-- DLTA
 ------------------------------------------------------------------------------
 Cycle:     57
  WF centre and spread    1  ( -0.000000,  0.000000, -0.000000 )     0.40838932
  WF centre and spread    2  ( -0.000000, -0.000000, -0.000000 )     0.30784969
  WF centre and spread    3  ( -0.000000, -0.000000,  0.000000 )     0.30784979
  WF centre and spread    4  ( -0.000000, -0.000000,  0.000000 )     0.40838973
  WF centre and spread    5  (  0.000000, -0.000000, -0.000000 )     0.30784886
  WF centre and spread    6  ( -0.902512,  0.902512,  0.902512 )     1.14385632
  WF centre and spread    7  (  0.902512, -0.902512, -0.902512 )     1.14385635
  Sum of centres and spreads (  0.000000, -0.000000, -0.000000 )     4.02804006

     57    -0.178E-14     0.0000000471        4.0280400584       0.56  <-- CONV
        O_D=      0.0018945 O_OD=      0.3634541 O_TOT=      4.0280401 <-- SPRD
 Delta: O_D= -0.1023395E-11 O_OD=  0.1021294E-11 O_TOT= -0.1776357E-14 <-- DLTA
 ------------------------------------------------------------------------------
 Cycle:     58
  WF centre and spread    1  ( -0.000000,  0.000000, -0.000000 )     0.40838932
  WF centre and spread    2  ( -0.000000, -0.000000, -0.000000 )     0.30784969
  WF centre and spread    3  ( -0.000000, -0.000000,  0.000000 )     0.30784979
  WF centre and spread    4  ( -0.000000, -0.000000,  0.000000 )     0.40838973
  WF centre and spread    5  (  0.000000, -0.000000, -0.000000 )     0.30784886
  WF centre and spread    6  ( -0.902512,  0.902512,  0.902512 )     1.14385632
  WF centre and spread    7  (  0.902512, -0.902512, -0.902512 )     1.14385635
  Sum of centres and spreads (  0.000000, -0.000000, -0.000000 )     4.02804006

     58    -0.355E-14     0.0000000468        4.0280400584       0.57  <-- CONV
        O_D=      0.0018945 O_OD=      0.3634541 O_TOT=      4.0280401 <-- SPRD
 Delta: O_D= -0.2495847E-11 O_OD=  0.2492950E-11 O_TOT= -0.3552714E-14 <-- DLTA
 ------------------------------------------------------------------------------
 Cycle:     59
  WF centre and spread    1  ( -0.000000,  0.000000, -0.000000 )     0.40838932
  WF centre and spread    2  ( -0.000000, -0.000000, -0.000000 )     0.30784969
  WF centre and spread    3  ( -0.000000, -0.000000,  0.000000 )     0.30784979
  WF centre and spread    4  ( -0.000000, -0.000000,  0.000000 )     0.40838973
  WF centre and spread    5  (  0.000000, -0.000000, -0.000000 )     0.30784886
  WF centre and spread    6  ( -0.902512,  0.902512,  0.902512 )     1.14385632
  WF centre and spread    7  (  0.902512, -0.902512, -0.902512 )     1.14385635
  Sum of centres and spreads (  0.000000, -0.000000, -0.000000 )     4.02804006

     59     0.711E-14     0.0000000461        4.0280400584       0.58  <-- CONV
        O_D=      0.0018945 O_OD=      0.3634541 O_TOT=      4.0280401 <-- SPRD
 Delta: O_D= -0.9886215E-12 O_OD=  0.9954815E-12 O_TOT=  0.7105427E-14 <-- DLTA
 ------------------------------------------------------------------------------
 Cycle:     60
  WF centre and spread    1  ( -0.000000,  0.000000, -0.000000 )     0.40838932
  WF centre and spread    2  ( -0.000000, -0.000000, -0.000000 )     0.30784969
  WF centre and spread    3  ( -0.000000, -0.000000,  0.000000 )     0.30784979
  WF centre and spread    4  ( -0.000000, -0.000000,  0.000000 )     0.40838973
  WF centre and spread    5  (  0.000000, -0.000000, -0.000000 )     0.30784886
  WF centre and spread    6  ( -0.902512,  0.902512,  0.902512 )     1.14385632
  WF centre and spread    7  (  0.902512, -0.902512, -0.902512 )     1.14385635
  Sum of centres and spreads (  0.000000, -0.000000, -0.000000 )     4.02804006

     60    -0.533E-14     0.0000000458        4.0280400584       0.58  <-- CONV
        O_D=      0.0018945 O_OD=      0.3634541 O_TOT=      4.0280401 <-- SPRD
 Delta: O_D= -0.1505113E-10 O_OD=  0.1504635E-10 O_TOT= -0.5329071E-14 <-- DLTA
 ------------------------------------------------------------------------------
 Cycle:     61
  WF centre and spread    1  ( -0.000000,  0.000000, -0.000000 )     0.40838932
  WF centre and spread    2  ( -0.000000, -0.000000, -0.000000 )     0.30784969
  WF centre and spread    3  ( -0.000000, -0.000000,  0.000000 )     0.30784979
  WF centre and spread    4  ( -0.000000, -0.000000,  0.000000 )     0.40838973
  WF centre and spread    5  (  0.000000, -0.000000, -0.000000 )     0.30784886
  WF centre and spread    6  ( -0.902512,  0.902512,  0.902512 )     1.14385632
  WF centre and spread    7  (  0.902512, -0.902512, -0.902512 )     1.14385635
  Sum of centres and spreads (  0.000000, -0.000000, -0.000000 )     4.02804006

     61     0.178E-14     0.0000000418        4.0280400584       0.59  <-- CONV
        O_D=      0.0018945 O_OD=      0.3634541 O_TOT=      4.0280401 <-- SPRD
 Delta: O_D= -0.4894501E-13 O_OD=  0.4979350E-13 O_TOT=  0.1776357E-14 <-- DLTA
 ------------------------------------------------------------------------------
 Cycle:     62
  WF centre and spread    1  ( -0.000000,  0.000000, -0.000000 )     0.40838932
  WF centre and spread    2  ( -0.000000, -0.000000, -0.000000 )     0.30784969
  WF centre and spread    3  ( -0.000000, -0.000000,  0.000000 )     0.30784979
  WF centre and spread    4  ( -0.000000, -0.000000,  0.000000 )     0.40838973
  WF centre and spread    5  (  0.000000, -0.000000, -0.000000 )     0.30784886
  WF centre and spread    6  ( -0.902512,  0.902512,  0.902512 )     1.14385632
  WF centre and spread    7  (  0.902512, -0.902512, -0.902512 )     1.14385635
  Sum of centres and spreads (  0.000000, -0.000000, -0.000000 )     4.02804006

     62     0.000E+00     0.0000000418        4.0280400584       0.60  <-- CONV
        O_D=      0.0018945 O_OD=      0.3634541 O_TOT=      4.0280401 <-- SPRD
 Delta: O_D= -0.4404938E-11 O_OD=  0.4404976E-11 O_TOT=  0.0000000E+00 <-- DLTA
 ------------------------------------------------------------------------------
 Cycle:     63
  WF centre and spread    1  ( -0.000000,  0.000000, -0.000000 )     0.40838932
  WF centre and spread    2  ( -0.000000, -0.000000, -0.000000 )     0.30784969
  WF centre and spread    3  ( -0.000000, -0.000000,  0.000000 )     0.30784979
  WF centre and spread    4  ( -0.000000, -0.000000,  0.000000 )     0.40838973
  WF centre and spread    5  (  0.000000, -0.000000, -0.000000 )     0.30784886
  WF centre and spread    6  ( -0.902512,  0.902512,  0.902512 )     1.14385632
  WF centre and spread    7  (  0.902512, -0.902512, -0.902512 )     1.14385635
  Sum of centres and spreads (  0.000000, -0.000000, -0.000000 )     4.02804006

     63    -0.355E-14     0.0000000405        4.0280400584       0.60  <-- CONV
        O_D=      0.0018945 O_OD=      0.3634541 O_TOT=      4.0280401 <-- SPRD
 Delta: O_D= -0.6246849E-11 O_OD=  0.6244116E-11 O_TOT= -0.3552714E-14 <-- DLTA
 ------------------------------------------------------------------------------
 Cycle:     64
  WF centre and spread    1  ( -0.000000,  0.000000, -0.000000 )     0.40838932
  WF centre and spread    2  ( -0.000000, -0.000000, -0.000000 )     0.30784969
  WF centre and spread    3  ( -0.000000, -0.000000,  0.000000 )     0.30784979
  WF centre and spread    4  ( -0.000000, -0.000000,  0.000000 )     0.40838973
  WF centre and spread    5  (  0.000000, -0.000000, -0.000000 )     0.30784886
  WF centre and spread    6  ( -0.902512,  0.902512,  0.902512 )     1.14385632
  WF centre and spread    7  (  0.902512, -0.902512, -0.902512 )     1.14385635
  Sum of centres and spreads (  0.000000, -0.000000, -0.000000 )     4.02804006

     64     0.000E+00     0.0000000387        4.0280400584       0.61  <-- CONV
        O_D=      0.0018945 O_OD=      0.3634541 O_TOT=      4.0280401 <-- SPRD
 Delta: O_D= -0.8947636E-12 O_OD=  0.8939516E-12 O_TOT=  0.0000000E+00 <-- DLTA
 ------------------------------------------------------------------------------
[...]
  Sum of centres and spreads (  0.000000, -0.000000, -0.000000 )     4.02804006

    182    -0.888E-15     0.0000000090        4.0280400584       1.34  <-- CONV
        O_D=      0.0018945 O_OD=      0.3634541 O_TOT=      4.0280401 <-- SPRD
 Delta: O_D=  0.7738124E-13 O_OD= -0.7771561E-13 O_TOT= -0.8881784E-15 <-- DLTA
 ------------------------------------------------------------------------------
 Cycle:    183
  WF centre and spread    1  ( -0.000000,  0.000000, -0.000000 )     0.40838932
  WF centre and spread    2  ( -0.000000, -0.000000, -0.000000 )     0.30784969
  WF centre and spread    3  ( -0.000000, -0.000000,  0.000000 )     0.30784979
  WF centre and spread    4  ( -0.000000, -0.000000,  0.000000 )     0.40838973
  WF centre and spread    5  (  0.000000, -0.000000, -0.000000 )     0.30784886
  WF centre and spread    6  ( -0.902512,  0.902512,  0.902512 )     1.14385632
  WF centre and spread    7  (  0.902512, -0.902512, -0.902512 )     1.14385635
  Sum of centres and spreads (  0.000000, -0.000000, -0.000000 )     4.02804006

    183     0.266E-14     0.0000000089        4.0280400584       1.34  <-- CONV
        O_D=      0.0018945 O_OD=      0.3634541 O_TOT=      4.0280401 <-- SPRD
 Delta: O_D=  0.1704366E-15 O_OD=  0.1887379E-14 O_TOT=  0.2664535E-14 <-- DLTA
 ------------------------------------------------------------------------------
 Cycle:    184
  WF centre and spread    1  ( -0.000000,  0.000000, -0.000000 )     0.40838932
  WF centre and spread    2  ( -0.000000, -0.000000, -0.000000 )     0.30784969
  WF centre and spread    3  ( -0.000000, -0.000000,  0.000000 )     0.30784979
  WF centre and spread    4  ( -0.000000, -0.000000,  0.000000 )     0.40838973
  WF centre and spread    5  (  0.000000, -0.000000, -0.000000 )     0.30784886
  WF centre and spread    6  ( -0.902512,  0.902512,  0.902512 )     1.14385632
  WF centre and spread    7  (  0.902512, -0.902512, -0.902512 )     1.14385635
  Sum of centres and spreads (  0.000000, -0.000000, -0.000000 )     4.02804006

    184    -0.888E-15     0.0000000089        4.0280400584       1.35  <-- CONV
        O_D=      0.0018945 O_OD=      0.3634541 O_TOT=      4.0280401 <-- SPRD
 Delta: O_D=  0.8159033E-13 O_OD= -0.8232304E-13 O_TOT= -0.8881784E-15 <-- DLTA
 ------------------------------------------------------------------------------
 Cycle:    185
  WF centre and spread    1  ( -0.000000,  0.000000, -0.000000 )     0.40838932
  WF centre and spread    2  ( -0.000000, -0.000000, -0.000000 )     0.30784969
  WF centre and spread    3  ( -0.000000, -0.000000,  0.000000 )     0.30784979
  WF centre and spread    4  ( -0.000000, -0.000000,  0.000000 )     0.40838973
  WF centre and spread    5  (  0.000000, -0.000000, -0.000000 )     0.30784886
  WF centre and spread    6  ( -0.902512,  0.902512,  0.902512 )     1.14385632
  WF centre and spread    7  (  0.902512, -0.902512, -0.902512 )     1.14385635
  Sum of centres and spreads (  0.000000, -0.000000, -0.000000 )     4.02804006

    185    -0.888E-15     0.0000000088        4.0280400584       1.36  <-- CONV
        O_D=      0.0018945 O_OD=      0.3634541 O_TOT=      4.0280401 <-- SPRD
 Delta: O_D=  0.8568840E-13 O_OD= -0.8604228E-13 O_TOT= -0.8881784E-15 <-- DLTA
 ------------------------------------------------------------------------------
 Cycle:    186
  WF centre and spread    1  ( -0.000000,  0.000000, -0.000000 )     0.40838932
  WF centre and spread    2  ( -0.000000, -0.000000, -0.000000 )     0.30784969
  WF centre and spread    3  ( -0.000000, -0.000000,  0.000000 )     0.30784979
  WF centre and spread    4  ( -0.000000, -0.000000,  0.000000 )     0.40838973
  WF centre and spread    5  (  0.000000, -0.000000, -0.000000 )     0.30784886
  WF centre and spread    6  ( -0.902512,  0.902512,  0.902512 )     1.14385632
  WF centre and spread    7  (  0.902512, -0.902512, -0.902512 )     1.14385635
  Sum of centres and spreads (  0.000000, -0.000000, -0.000000 )     4.02804006

    186    -0.178E-14     0.0000000087        4.0280400584       1.36  <-- CONV
        O_D=      0.0018945 O_OD=      0.3634541 O_TOT=      4.0280401 <-- SPRD
 Delta: O_D=  0.3582204E-15 O_OD= -0.2331468E-14 O_TOT= -0.1776357E-14 <-- DLTA
 ------------------------------------------------------------------------------
 Cycle:    187
  WF centre and spread    1  ( -0.000000,  0.000000, -0.000000 )     0.40838932
  WF centre and spread    2  ( -0.000000, -0.000000, -0.000000 )     0.30784969
  WF centre and spread    3  ( -0.000000, -0.000000,  0.000000 )     0.30784979
  WF centre and spread    4  ( -0.000000, -0.000000,  0.000000 )     0.40838973
  WF centre and spread    5  (  0.000000, -0.000000, -0.000000 )     0.30784886
  WF centre and spread    6  ( -0.902512,  0.902512,  0.902512 )     1.14385632
  WF centre and spread    7  (  0.902512, -0.902512, -0.902512 )     1.14385635
  Sum of centres and spreads (  0.000000, -0.000000, -0.000000 )     4.02804006

    187     0.355E-14     0.0000000087        4.0280400584       1.37  <-- CONV
        O_D=      0.0018945 O_OD=      0.3634541 O_TOT=      4.0280401 <-- SPRD
 Delta: O_D=  0.1225148E-15 O_OD=  0.3663736E-14 O_TOT=  0.3552714E-14 <-- DLTA
 ------------------------------------------------------------------------------
 Cycle:    188
  WF centre and spread    1  ( -0.000000,  0.000000, -0.000000 )     0.40838932
  WF centre and spread    2  ( -0.000000, -0.000000, -0.000000 )     0.30784969
  WF centre and spread    3  ( -0.000000, -0.000000,  0.000000 )     0.30784979
  WF centre and spread    4  ( -0.000000, -0.000000,  0.000000 )     0.40838973
  WF centre and spread    5  (  0.000000, -0.000000, -0.000000 )     0.30784886
  WF centre and spread    6  ( -0.902512,  0.902512,  0.902512 )     1.14385632
  WF centre and spread    7  (  0.902512, -0.902512, -0.902512 )     1.14385635
  Sum of centres and spreads (  0.000000, -0.000000, -0.000000 )     4.02804006

    188    -0.444E-14     0.0000000087        4.0280400584       1.38  <-- CONV
        O_D=      0.0018945 O_OD=      0.3634541 O_TOT=      4.0280401 <-- SPRD
 Delta: O_D=  0.3651593E-15 O_OD= -0.4829470E-14 O_TOT= -0.4440892E-14 <-- DLTA
 ------------------------------------------------------------------------------
 Cycle:    189
  WF centre and spread    1  ( -0.000000,  0.000000, -0.000000 )     0.40838932
  WF centre and spread    2  ( -0.000000, -0.000000, -0.000000 )     0.30784969
  WF centre and spread    3  ( -0.000000, -0.000000,  0.000000 )     0.30784979
  WF centre and spread    4  ( -0.000000, -0.000000,  0.000000 )     0.40838973
  WF centre and spread    5  (  0.000000, -0.000000, -0.000000 )     0.30784886
  WF centre and spread    6  ( -0.902512,  0.902512,  0.902512 )     1.14385632
  WF centre and spread    7  (  0.902512, -0.902512, -0.902512 )     1.14385635
  Sum of centres and spreads (  0.000000, -0.000000, -0.000000 )     4.02804006

    189     0.355E-14     0.0000000087        4.0280400584       1.38  <-- CONV
        O_D=      0.0018945 O_OD=      0.3634541 O_TOT=      4.0280401 <-- SPRD
 Delta: O_D=  0.1782428E-15 O_OD=  0.2553513E-14 O_TOT=  0.3552714E-14 <-- DLTA
 ------------------------------------------------------------------------------
 Cycle:    190
  WF centre and spread    1  ( -0.000000,  0.000000, -0.000000 )     0.40838932
  WF centre and spread    2  ( -0.000000, -0.000000, -0.000000 )     0.30784969
  WF centre and spread    3  ( -0.000000, -0.000000,  0.000000 )     0.30784979
  WF centre and spread    4  ( -0.000000, -0.000000,  0.000000 )     0.40838973
  WF centre and spread    5  (  0.000000, -0.000000, -0.000000 )     0.30784886
  WF centre and spread    6  ( -0.902512,  0.902512,  0.902512 )     1.14385632
  WF centre and spread    7  (  0.902512, -0.902512, -0.902512 )     1.14385635
  Sum of centres and spreads (  0.000000, -0.000000, -0.000000 )     4.02804006

    190    -0.178E-14     0.0000000087        4.0280400584       1.39  <-- CONV
        O_D=      0.0018945 O_OD=      0.3634541 O_TOT=      4.0280401 <-- SPRD
 Delta: O_D=  0.7177418E-16 O_OD= -0.1720846E-14 O_TOT= -0.1776357E-14 <-- DLTA
 ------------------------------------------------------------------------------
 Cycle:    191
  WF centre and spread    1  ( -0.000000,  0.000000, -0.000000 )     0.40838932
  WF centre and spread    2  ( -0.000000, -0.000000, -0.000000 )     0.30784969
  WF centre and spread    3  ( -0.000000, -0.000000,  0.000000 )     0.30784979
  WF centre and spread    4  ( -0.000000, -0.000000,  0.000000 )     0.40838973
  WF centre and spread    5  (  0.000000, -0.000000, -0.000000 )     0.30784886
  WF centre and spread    6  ( -0.902512,  0.902512,  0.902512 )     1.14385632
  WF centre and spread    7  (  0.902512, -0.902512, -0.902512 )     1.14385635
  Sum of centres and spreads (  0.000000, -0.000000, -0.000000 )     4.02804006

    191    -0.888E-15     0.0000000087        4.0280400584       1.40  <-- CONV
        O_D=      0.0018945 O_OD=      0.3634541 O_TOT=      4.0280401 <-- SPRD
 Delta: O_D=  0.7350891E-16 O_OD= -0.3885781E-15 O_TOT= -0.8881784E-15 <-- DLTA
 ------------------------------------------------------------------------------
 Cycle:    192
  WF centre and spread    1  ( -0.000000,  0.000000, -0.000000 )     0.40838932
  WF centre and spread    2  ( -0.000000, -0.000000, -0.000000 )     0.30784969
  WF centre and spread    3  ( -0.000000, -0.000000,  0.000000 )     0.30784979
  WF centre and spread    4  ( -0.000000, -0.000000,  0.000000 )     0.40838973
  WF centre and spread    5  (  0.000000, -0.000000, -0.000000 )     0.30784886
  WF centre and spread    6  ( -0.902512,  0.902512,  0.902512 )     1.14385632
  WF centre and spread    7  (  0.902512, -0.902512, -0.902512 )     1.14385635
  Sum of centres and spreads (  0.000000, -0.000000, -0.000000 )     4.02804006

    192     0.888E-15     0.0000000087        4.0280400584       1.41  <-- CONV
        O_D=      0.0018945 O_OD=      0.3634541 O_TOT=      4.0280401 <-- SPRD
 Delta: O_D=  0.5594483E-16 O_OD=  0.9992007E-15 O_TOT=  0.8881784E-15 <-- DLTA
 ------------------------------------------------------------------------------
 Cycle:    193
  WF centre and spread    1  ( -0.000000,  0.000000, -0.000000 )     0.40838932
  WF centre and spread    2  ( -0.000000, -0.000000, -0.000000 )     0.30784969
  WF centre and spread    3  ( -0.000000, -0.000000,  0.000000 )     0.30784979
  WF centre and spread    4  ( -0.000000, -0.000000,  0.000000 )     0.40838973
  WF centre and spread    5  (  0.000000, -0.000000, -0.000000 )     0.30784886
  WF centre and spread    6  ( -0.902512,  0.902512,  0.902512 )     1.14385632
  WF centre and spread    7  (  0.902512, -0.902512, -0.902512 )     1.14385635
  Sum of centres and spreads (  0.000000, -0.000000, -0.000000 )     4.02804006

    193     0.266E-14     0.0000000087        4.0280400584       1.42  <-- CONV
        O_D=      0.0018945 O_OD=      0.3634541 O_TOT=      4.0280401 <-- SPRD
 Delta: O_D=  0.1173107E-15 O_OD=  0.2553513E-14 O_TOT=  0.2664535E-14 <-- DLTA
 ------------------------------------------------------------------------------
 Cycle:    194
  WF centre and spread    1  ( -0.000000,  0.000000, -0.000000 )     0.40838932
  WF centre and spread    2  ( -0.000000, -0.000000, -0.000000 )     0.30784969
  WF centre and spread    3  ( -0.000000, -0.000000,  0.000000 )     0.30784979
  WF centre and spread    4  ( -0.000000, -0.000000,  0.000000 )     0.40838973
  WF centre and spread    5  (  0.000000, -0.000000, -0.000000 )     0.30784886
  WF centre and spread    6  ( -0.902512,  0.902512,  0.902512 )     1.14385632
  WF centre and spread    7  (  0.902512, -0.902512, -0.902512 )     1.14385635
  Sum of centres and spreads (  0.000000, -0.000000, -0.000000 )     4.02804006

    194    -0.888E-15     0.0000000087        4.0280400584       1.42  <-- CONV
        O_D=      0.0018945 O_OD=      0.3634541 O_TOT=      4.0280401 <-- SPRD
 Delta: O_D=  0.8973594E-13 O_OD= -0.9098278E-13 O_TOT= -0.8881784E-15 <-- DLTA
 ------------------------------------------------------------------------------
 Cycle:    195
  WF centre and spread    1  ( -0.000000,  0.000000, -0.000000 )     0.40838932
  WF centre and spread    2  ( -0.000000, -0.000000, -0.000000 )     0.30784969
  WF centre and spread    3  ( -0.000000, -0.000000,  0.000000 )     0.30784979
  WF centre and spread    4  ( -0.000000, -0.000000,  0.000000 )     0.40838973
  WF centre and spread    5  (  0.000000, -0.000000, -0.000000 )     0.30784886
  WF centre and spread    6  ( -0.902512,  0.902512,  0.902512 )     1.14385632
  WF centre and spread    7  (  0.902512, -0.902512, -0.902512 )     1.14385635
  Sum of centres and spreads (  0.000000, -0.000000, -0.000000 )     4.02804006

    195    -0.355E-14     0.0000000086        4.0280400584       1.42  <-- CONV
        O_D=      0.0018945 O_OD=      0.3634541 O_TOT=      4.0280401 <-- SPRD
 Delta: O_D=  0.9362498E-13 O_OD= -0.9753309E-13 O_TOT= -0.3552714E-14 <-- DLTA
 ------------------------------------------------------------------------------
 Cycle:    196
  WF centre and spread    1  ( -0.000000,  0.000000, -0.000000 )     0.40838932
  WF centre and spread    2  ( -0.000000, -0.000000, -0.000000 )     0.30784969
  WF centre and spread    3  ( -0.000000, -0.000000,  0.000000 )     0.30784979
  WF centre and spread    4  ( -0.000000, -0.000000,  0.000000 )     0.40838973
  WF centre and spread    5  (  0.000000, -0.000000, -0.000000 )     0.30784886
  WF centre and spread    6  ( -0.902512,  0.902512,  0.902512 )     1.14385632
  WF centre and spread    7  (  0.902512, -0.902512, -0.902512 )     1.14385635
  Sum of centres and spreads (  0.000000, -0.000000, -0.000000 )     4.02804006

    196     0.000E+00     0.0000000085        4.0280400584       1.43  <-- CONV
        O_D=      0.0018945 O_OD=      0.3634541 O_TOT=      4.0280401 <-- SPRD
 Delta: O_D=  0.1270685E-15 O_OD=  0.7771561E-15 O_TOT=  0.0000000E+00 <-- DLTA
 ------------------------------------------------------------------------------
 Cycle:    197
  WF centre and spread    1  ( -0.000000,  0.000000, -0.000000 )     0.40838932
  WF centre and spread    2  ( -0.000000, -0.000000, -0.000000 )     0.30784969
  WF centre and spread    3  ( -0.000000, -0.000000,  0.000000 )     0.30784979
  WF centre and spread    4  ( -0.000000, -0.000000,  0.000000 )     0.40838973
  WF centre and spread    5  (  0.000000, -0.000000, -0.000000 )     0.30784886
  WF centre and spread    6  ( -0.902512,  0.902512,  0.902512 )     1.14385632
  WF centre and spread    7  (  0.902512, -0.902512, -0.902512 )     1.14385635
  Sum of centres and spreads (  0.000000, -0.000000, -0.000000 )     4.02804006

    197    -0.888E-15     0.0000000085        4.0280400584       1.44  <-- CONV
        O_D=      0.0018945 O_OD=      0.3634541 O_TOT=      4.0280401 <-- SPRD
 Delta: O_D=  0.9741145E-13 O_OD= -0.9897638E-13 O_TOT= -0.8881784E-15 <-- DLTA
 ------------------------------------------------------------------------------
 Cycle:    198
  WF centre and spread    1  ( -0.000000,  0.000000, -0.000000 )     0.40838932
  WF centre and spread    2  ( -0.000000, -0.000000, -0.000000 )     0.30784969
  WF centre and spread    3  ( -0.000000, -0.000000,  0.000000 )     0.30784979
  WF centre and spread    4  ( -0.000000, -0.000000,  0.000000 )     0.40838973
  WF centre and spread    5  (  0.000000, -0.000000, -0.000000 )     0.30784886
  WF centre and spread    6  ( -0.902512,  0.902512,  0.902512 )     1.14385632
  WF centre and spread    7  (  0.902512, -0.902512, -0.902512 )     1.14385635
  Sum of centres and spreads (  0.000000, -0.000000, -0.000000 )     4.02804006

    198     0.888E-15     0.0000000084        4.0280400584       1.44  <-- CONV
        O_D=      0.0018945 O_OD=      0.3634541 O_TOT=      4.0280401 <-- SPRD
 Delta: O_D=  0.1322727E-15 O_OD=  0.7771561E-15 O_TOT=  0.8881784E-15 <-- DLTA
 ------------------------------------------------------------------------------
 Cycle:    199
  WF centre and spread    1  ( -0.000000,  0.000000, -0.000000 )     0.40838932
  WF centre and spread    2  ( -0.000000, -0.000000, -0.000000 )     0.30784969
  WF centre and spread    3  ( -0.000000, -0.000000,  0.000000 )     0.30784979
  WF centre and spread    4  ( -0.000000, -0.000000,  0.000000 )     0.40838973
  WF centre and spread    5  (  0.000000, -0.000000, -0.000000 )     0.30784886
  WF centre and spread    6  ( -0.902512,  0.902512,  0.902512 )     1.14385632
  WF centre and spread    7  (  0.902512, -0.902512, -0.902512 )     1.14385635
  Sum of centres and spreads (  0.000000, -0.000000, -0.000000 )     4.02804006

    199     0.178E-14     0.0000000084        4.0280400584       1.45  <-- CONV
        O_D=      0.0018945 O_OD=      0.3634541 O_TOT=      4.0280401 <-- SPRD
 Delta: O_D=  0.1836638E-15 O_OD=  0.1221245E-14 O_TOT=  0.1776357E-14 <-- DLTA
 ------------------------------------------------------------------------------
 Cycle:    200
  WF centre and spread    1  ( -0.000000,  0.000000, -0.000000 )     0.40838932
  WF centre and spread    2  ( -0.000000, -0.000000, -0.000000 )     0.30784969
  WF centre and spread    3  ( -0.000000, -0.000000,  0.000000 )     0.30784979
  WF centre and spread    4  ( -0.000000, -0.000000,  0.000000 )     0.40838973
  WF centre and spread    5  (  0.000000, -0.000000, -0.000000 )     0.30784886
  WF centre and spread    6  ( -0.902512,  0.902512,  0.902512 )     1.14385632
  WF centre and spread    7  (  0.902512, -0.902512, -0.902512 )     1.14385635
  Sum of centres and spreads (  0.000000, -0.000000, -0.000000 )     4.02804006

    200     0.266E-14     0.0000000084        4.0280400584       1.46  <-- CONV
        O_D=      0.0018945 O_OD=      0.3634541 O_TOT=      4.0280401 <-- SPRD
 Delta: O_D=  0.1034329E-15 O_OD=  0.2664535E-14 O_TOT=  0.2664535E-14 <-- DLTA
 ------------------------------------------------------------------------------

 Writing checkpoint file copper.chk... done

 Final State
  WF centre and spread    1  ( -0.000000,  0.000000, -0.000000 )     0.40838932
  WF centre and spread    2  ( -0.000000, -0.000000, -0.000000 )     0.30784969
  WF centre and spread    3  ( -0.000000, -0.000000,  0.000000 )     0.30784979
  WF centre and spread    4  ( -0.000000, -0.000000,  0.000000 )     0.40838973
  WF centre and spread    5  (  0.000000, -0.000000, -0.000000 )     0.30784886
  WF centre and spread    6  ( -0.902512,  0.902512,  0.902512 )     1.14385632
  WF centre and spread    7  (  0.902512, -0.902512, -0.902512 )     1.14385635
  Sum of centres and spreads (  0.000000, -0.000000, -0.000000 )     4.02804006

         Spreads (Ang^2)       Omega I      =     3.662691490
        ================       Omega D      =     0.001894482
                               Omega OD     =     0.363454087
    Final Spread (Ang^2)       Omega Total  =     4.028040058
 ------------------------------------------------------------------------------
 Time for wannierise            1.272 (sec)

 Writing checkpoint file copper.chk... done

 Total Execution Time           1.464 (sec)

 *===========================================================================*
 |                             TIMING INFORMATION                            |
 *===========================================================================*
 |    Tag                                                Ncalls      Time (s)|
 |---------------------------------------------------------------------------|
 |kmesh: get                                        :         1         0.096|
 |overlap: read                                     :         1         0.072|
 |dis: main                                         :         1         0.020|
 |wann: main                                        :         1         1.272|
 *---------------------------------------------------------------------------*

 All done: wannier90 exiting
