
     Program PWSCF v.6.beta (svn rev. 12957) starts on 14Sep2016 at 14:16:19 

     This program is part of the open-source Quantum ESPRESSO suite
     for quantum simulation of materials; please cite
         "P. Giannozzi et al., J. Phys.:Condens. Matter 21 395502 (2009);
          URL http://www.quantum-espresso.org", 
     in publications or presentations arising from this work. More details at
     http://www.quantum-espresso.org/quote

           HOST :    @host@
           ARCH :    x86_64
             CC :    cc
            CPP :    cpp
            F90 :    mpif90
            F77 :    gfortran
         DFLAGS :    -D__GFORTRAN -D__STD_F95 -D__FFTW -D__MPI
      BLAS LIBS :    
    LAPACK LIBS :    $(TOPDIR)/LAPACK/liblapack.a $(TOPDIR)/LAPACK/libblas.a
       FFT LIBS :    
      MASS LIBS :    

     Parallel version (MPI), running on     1 processors
     Waiting for input...
     Reading input from standard input

     Current dimensions of program PWSCF are:
     Max number of different atomic species (ntypx) = 10
     Max number of k-points (npk) =  40000
     Max angular momentum in pseudopotentials (lmaxx) =  3

     Atomic positions and unit cell read from directory:
     ./sil.save/

               file H.pz-vbc.UPF: wavefunction(s)  1S renormalized

     gamma-point specific algorithms are used

     Subspace diagonalization in iterative solution of the eigenvalue problem:
     a serial algorithm will be used


     G-vector sticks info
     --------------------
     sticks:   dense  smooth     PW     G-vecs:    dense   smooth      PW
     Sum        1829    1829    457                58893    58893    7249



     bravais-lattice index     =            1
     lattice parameter (alat)  =      12.0000  a.u.
     unit-cell volume          =    1728.0000 (a.u.)^3
     number of atoms/cell      =            5
     number of atomic types    =            2
     number of electrons       =         8.00
     number of Kohn-Sham states=            4
     kinetic-energy cutoff     =      40.0000  Ry
     charge density cutoff     =     160.0000  Ry
     Exchange-correlation      =  SLA  PZ   NOGX NOGC ( 1  1  0  0 0 0)

     celldm(1)=  12.000000  celldm(2)=   0.000000  celldm(3)=   0.000000
     celldm(4)=   0.000000  celldm(5)=   0.000000  celldm(6)=   0.000000

     crystal axes: (cart. coord. in units of alat)
               a(1) = (   1.000000   0.000000   0.000000 )  
               a(2) = (   0.000000   1.000000   0.000000 )  
               a(3) = (   0.000000   0.000000   1.000000 )  

     reciprocal axes: (cart. coord. in units 2 pi/alat)
               b(1) = (  1.000000  0.000000  0.000000 )  
               b(2) = (  0.000000  1.000000  0.000000 )  
               b(3) = (  0.000000  0.000000  1.000000 )  


     PseudoPot. # 1 for Si read from file:
     ../../pseudo/Si.pz-vbc.UPF
     MD5 check sum: bcd8ae23180a2f07cc8655fe7dcd9644
     Pseudo is Norm-conserving, Zval =  4.0
     Generated by new atomic code, or converted to UPF format
     Using radial grid of  431 points,  2 beta functions with: 
                l(1) =   0
                l(2) =   1

     PseudoPot. # 2 for H  read from file:
     ../../pseudo/H.pz-vbc.UPF
     MD5 check sum: 90becb985b714f09656c73597998d266
     Pseudo is Norm-conserving, Zval =  1.0
     Generated by new atomic code, or converted to UPF format
     Using radial grid of  131 points,  0 beta functions with: 

     atomic species   valence    mass     pseudopotential
        Si             4.00    55.00000     Si( 1.00)
        H              1.00     1.00000     H ( 1.00)

     24 Sym. Ops. (no inversion) found



   Cartesian axes

     site n.     atom                  positions (alat units)
         1           Si  tau(   1) = (   0.0000000   0.0000000   0.0000000  )
         2           H   tau(   2) = (   0.1663827   0.1663827   0.1663827  )
         3           H   tau(   3) = (   0.1663827  -0.1663827  -0.1663827  )
         4           H   tau(   4) = (  -0.1663827   0.1663827  -0.1663827  )
         5           H   tau(   5) = (  -0.1663827  -0.1663827   0.1663827  )

     number of k points=     1
                       cart. coord. in units 2pi/alat
        k(    1) = (   0.0000000   0.0000000   0.0000000), wk =   2.0000000

     Dense  grid:    29447 G-vectors     FFT dimensions: (  50,  50,  50)

     Estimated max dynamical RAM per process >      12.69Mb

     The potential is recalculated from file :
     ./sil.save/charge-density.dat

     Starting wfc are random

     Band Structure Calculation
     CG style diagonalization

     ethr =  1.25E-12,  avg # of iterations = 19.5

     total cpu time spent up to now is        0.4 secs

     End of band structure calculation

          k = 0.0000 0.0000 0.0000 (  3625 PWs)   bands (ev):

   -11.1698  -6.5316  -6.5316  -6.5316

     highest occupied level (ev):    -6.5316

     Writing output data file sil.save

     init_run     :      0.15s CPU      0.08s WALL (       1 calls)
     electrons    :      0.54s CPU      0.27s WALL (       1 calls)

     Called by init_run:
     wfcinit      :      0.00s CPU      0.00s WALL (       1 calls)
     potinit      :      0.04s CPU      0.02s WALL (       1 calls)

     Called by electrons:
     c_bands      :      0.54s CPU      0.27s WALL (       1 calls)
     v_of_rho     :      0.03s CPU      0.01s WALL (       1 calls)

     Called by c_bands:
     init_us_2    :      0.00s CPU      0.00s WALL (       1 calls)
     rcgdiagg     :      0.53s CPU      0.26s WALL (       1 calls)
     wfcrot       :      0.01s CPU      0.01s WALL (       1 calls)

     Called by sum_band:

     Called by *cgdiagg:
     h_psi        :      0.51s CPU      0.26s WALL (      79 calls)
     rdiaghg      :      0.00s CPU      0.00s WALL (       1 calls)

     Called by h_psi:
     h_psi:pot    :      0.51s CPU      0.26s WALL (      79 calls)
     h_psi:calbec :      0.00s CPU      0.00s WALL (      79 calls)
     add_vuspsi   :      0.00s CPU      0.00s WALL (      79 calls)
     h_1psi       :      0.50s CPU      0.25s WALL (      78 calls)

     General routines
     calbec       :      0.00s CPU      0.00s WALL (     157 calls)
     fft          :      0.02s CPU      0.01s WALL (       3 calls)
     fftw         :      0.48s CPU      0.24s WALL (     160 calls)
     davcio       :      0.00s CPU      0.00s WALL (       3 calls)

     Parallel routines
     fft_scatter  :      0.02s CPU      0.01s WALL (     163 calls)

     PWSCF        :     0.79s CPU         0.40s WALL


   This run was terminated on:  14:16:20  14Sep2016            

=------------------------------------------------------------------------------=
   JOB DONE.
=------------------------------------------------------------------------------=
