
     Program PWSCF v.6.beta (svn rev. 12957) starts on 14Sep2016 at 14:16:17 

     This program is part of the open-source Quantum ESPRESSO suite
     for quantum simulation of materials; please cite
         "P. Giannozzi et al., J. Phys.:Condens. Matter 21 395502 (2009);
          URL http://www.quantum-espresso.org", 
     in publications or presentations arising from this work. More details at
     http://www.quantum-espresso.org/quote

           HOST :    @host@
           ARCH :    x86_64
             CC :    cc
            CPP :    cpp
            F90 :    mpif90
            F77 :    gfortran
         DFLAGS :    -D__GFORTRAN -D__STD_F95 -D__FFTW -D__MPI
      BLAS LIBS :    
    LAPACK LIBS :    $(TOPDIR)/LAPACK/liblapack.a $(TOPDIR)/LAPACK/libblas.a
       FFT LIBS :    
      MASS LIBS :    

     Parallel version (MPI), running on     1 processors
     Waiting for input...
     Reading input from standard input

     Current dimensions of program PWSCF are:
     Max number of different atomic species (ntypx) = 10
     Max number of k-points (npk) =  40000
     Max angular momentum in pseudopotentials (lmaxx) =  3
               file H.pz-vbc.UPF: wavefunction(s)  1S renormalized

     gamma-point specific algorithms are used

     Subspace diagonalization in iterative solution of the eigenvalue problem:
     a serial algorithm will be used


     G-vector sticks info
     --------------------
     sticks:   dense  smooth     PW     G-vecs:    dense   smooth      PW
     Sum        1829    1829    457                58893    58893    7249



     bravais-lattice index     =            1
     lattice parameter (alat)  =      12.0000  a.u.
     unit-cell volume          =    1728.0000 (a.u.)^3
     number of atoms/cell      =            5
     number of atomic types    =            2
     number of electrons       =         8.00
     number of Kohn-Sham states=            4
     kinetic-energy cutoff     =      40.0000  Ry
     charge density cutoff     =     160.0000  Ry
     convergence threshold     =      1.0E-10
     mixing beta               =       0.2000
     number of iterations used =            8  plain     mixing
     Exchange-correlation      =  SLA  PZ   NOGX NOGC ( 1  1  0  0 0 0)

     celldm(1)=  12.000000  celldm(2)=   0.000000  celldm(3)=   0.000000
     celldm(4)=   0.000000  celldm(5)=   0.000000  celldm(6)=   0.000000

     crystal axes: (cart. coord. in units of alat)
               a(1) = (   1.000000   0.000000   0.000000 )  
               a(2) = (   0.000000   1.000000   0.000000 )  
               a(3) = (   0.000000   0.000000   1.000000 )  

     reciprocal axes: (cart. coord. in units 2 pi/alat)
               b(1) = (  1.000000  0.000000  0.000000 )  
               b(2) = (  0.000000  1.000000  0.000000 )  
               b(3) = (  0.000000  0.000000  1.000000 )  


     PseudoPot. # 1 for Si read from file:
     ../../pseudo/Si.pz-vbc.UPF
     MD5 check sum: bcd8ae23180a2f07cc8655fe7dcd9644
     Pseudo is Norm-conserving, Zval =  4.0
     Generated by new atomic code, or converted to UPF format
     Using radial grid of  431 points,  2 beta functions with: 
                l(1) =   0
                l(2) =   1

     PseudoPot. # 2 for H  read from file:
     ../../pseudo/H.pz-vbc.UPF
     MD5 check sum: 90becb985b714f09656c73597998d266
     Pseudo is Norm-conserving, Zval =  1.0
     Generated by new atomic code, or converted to UPF format
     Using radial grid of  131 points,  0 beta functions with: 

     atomic species   valence    mass     pseudopotential
        Si             4.00    55.00000     Si( 1.00)
        H              1.00     1.00000     H ( 1.00)

     24 Sym. Ops. (no inversion) found



   Cartesian axes

     site n.     atom                  positions (alat units)
         1           Si  tau(   1) = (   0.0000000   0.0000000   0.0000000  )
         2           H   tau(   2) = (   0.1663827   0.1663827   0.1663827  )
         3           H   tau(   3) = (   0.1663827  -0.1663827  -0.1663827  )
         4           H   tau(   4) = (  -0.1663827   0.1663827  -0.1663827  )
         5           H   tau(   5) = (  -0.1663827  -0.1663827   0.1663827  )

     number of k points=     1
                       cart. coord. in units 2pi/alat
        k(    1) = (   0.0000000   0.0000000   0.0000000), wk =   2.0000000

     Dense  grid:    29447 G-vectors     FFT dimensions: (  50,  50,  50)

     Estimated max dynamical RAM per process >      21.28Mb

     Initial potential from superposition of free atoms

     starting charge    7.99940, renormalised to    8.00000

     negative rho (up, down):  1.526E-05 0.000E+00
     Starting wfc are random

     total cpu time spent up to now is        0.1 secs

     per-process dynamical memory:    22.2 Mb

     Self-consistent Calculation

     iteration #  1     ecut=    40.00 Ry     beta=0.20
     CG style diagonalization
     ethr =  1.00E-02,  avg # of iterations =  7.5

     negative rho (up, down):  8.985E-06 0.000E+00

     total cpu time spent up to now is        0.2 secs

     total energy              =     -12.27023767 Ry
     Harris-Foulkes estimate   =     -12.29159589 Ry
     estimated scf accuracy    <       0.13464312 Ry

     iteration #  2     ecut=    40.00 Ry     beta=0.20
     CG style diagonalization
     ethr =  1.68E-03,  avg # of iterations =  3.0

     negative rho (up, down):  5.424E-07 0.000E+00

     total cpu time spent up to now is        0.3 secs

     total energy              =     -12.24746112 Ry
     Harris-Foulkes estimate   =     -12.27893772 Ry
     estimated scf accuracy    <       0.07704393 Ry

     iteration #  3     ecut=    40.00 Ry     beta=0.20
     CG style diagonalization
     ethr =  9.63E-04,  avg # of iterations =  3.2

     negative rho (up, down):  3.184E-07 0.000E+00

     total cpu time spent up to now is        0.4 secs

     total energy              =     -12.25537844 Ry
     Harris-Foulkes estimate   =     -12.25601748 Ry
     estimated scf accuracy    <       0.00272330 Ry

     iteration #  4     ecut=    40.00 Ry     beta=0.20
     CG style diagonalization
     ethr =  3.40E-05,  avg # of iterations =  4.8

     negative rho (up, down):  2.752E-07 0.000E+00

     total cpu time spent up to now is        0.5 secs

     total energy              =     -12.25637752 Ry
     Harris-Foulkes estimate   =     -12.25667949 Ry
     estimated scf accuracy    <       0.00240637 Ry

     iteration #  5     ecut=    40.00 Ry     beta=0.20
     CG style diagonalization
     ethr =  3.01E-05,  avg # of iterations =  3.0

     negative rho (up, down):  5.520E-08 0.000E+00

     total cpu time spent up to now is        0.5 secs

     total energy              =     -12.25573353 Ry
     Harris-Foulkes estimate   =     -12.25640032 Ry
     estimated scf accuracy    <       0.00157615 Ry

     iteration #  6     ecut=    40.00 Ry     beta=0.20
     CG style diagonalization
     ethr =  1.97E-05,  avg # of iterations =  3.8

     negative rho (up, down):  4.998E-08 0.000E+00

     total cpu time spent up to now is        0.6 secs

     total energy              =     -12.25601668 Ry
     Harris-Foulkes estimate   =     -12.25603152 Ry
     estimated scf accuracy    <       0.00007897 Ry

     iteration #  7     ecut=    40.00 Ry     beta=0.20
     CG style diagonalization
     ethr =  9.87E-07,  avg # of iterations =  3.8

     total cpu time spent up to now is        0.7 secs

     total energy              =     -12.25603063 Ry
     Harris-Foulkes estimate   =     -12.25602813 Ry
     estimated scf accuracy    <       0.00004131 Ry

     iteration #  8     ecut=    40.00 Ry     beta=0.20
     CG style diagonalization
     ethr =  5.16E-07,  avg # of iterations =  3.2

     total cpu time spent up to now is        0.7 secs

     total energy              =     -12.25602806 Ry
     Harris-Foulkes estimate   =     -12.25603346 Ry
     estimated scf accuracy    <       0.00001455 Ry

     iteration #  9     ecut=    40.00 Ry     beta=0.20
     CG style diagonalization
     ethr =  1.82E-07,  avg # of iterations =  3.8

     total cpu time spent up to now is        0.8 secs

     total energy              =     -12.25603008 Ry
     Harris-Foulkes estimate   =     -12.25603023 Ry
     estimated scf accuracy    <       0.00000219 Ry

     iteration # 10     ecut=    40.00 Ry     beta=0.20
     CG style diagonalization
     ethr =  2.74E-08,  avg # of iterations =  3.8

     total cpu time spent up to now is        0.9 secs

     total energy              =     -12.25602893 Ry
     Harris-Foulkes estimate   =     -12.25603036 Ry
     estimated scf accuracy    <       0.00000275 Ry

     iteration # 11     ecut=    40.00 Ry     beta=0.20
     CG style diagonalization
     ethr =  2.74E-08,  avg # of iterations =  4.0

     total cpu time spent up to now is        1.0 secs

     total energy              =     -12.25602945 Ry
     Harris-Foulkes estimate   =     -12.25602945 Ry
     estimated scf accuracy    <       0.00000007 Ry

     iteration # 12     ecut=    40.00 Ry     beta=0.20
     CG style diagonalization
     ethr =  8.55E-10,  avg # of iterations =  4.2

     total cpu time spent up to now is        1.1 secs

     total energy              =     -12.25602943 Ry
     Harris-Foulkes estimate   =     -12.25602948 Ry
     estimated scf accuracy    <       0.00000012 Ry

     iteration # 13     ecut=    40.00 Ry     beta=0.20
     CG style diagonalization
     ethr =  8.55E-10,  avg # of iterations =  3.8

     total cpu time spent up to now is        1.1 secs

     total energy              =     -12.25602944 Ry
     Harris-Foulkes estimate   =     -12.25602944 Ry
     estimated scf accuracy    <          8.7E-09 Ry

     iteration # 14     ecut=    40.00 Ry     beta=0.20
     CG style diagonalization
     ethr =  1.08E-10,  avg # of iterations =  3.2

     total cpu time spent up to now is        1.2 secs

     total energy              =     -12.25602944 Ry
     Harris-Foulkes estimate   =     -12.25602944 Ry
     estimated scf accuracy    <          4.1E-09 Ry

     iteration # 15     ecut=    40.00 Ry     beta=0.20
     CG style diagonalization
     ethr =  5.11E-11,  avg # of iterations =  4.0

     total cpu time spent up to now is        1.3 secs

     total energy              =     -12.25602944 Ry
     Harris-Foulkes estimate   =     -12.25602944 Ry
     estimated scf accuracy    <          2.2E-09 Ry

     iteration # 16     ecut=    40.00 Ry     beta=0.20
     CG style diagonalization
     ethr =  2.75E-11,  avg # of iterations =  3.2

     total cpu time spent up to now is        1.4 secs

     total energy              =     -12.25602944 Ry
     Harris-Foulkes estimate   =     -12.25602944 Ry
     estimated scf accuracy    <          4.3E-10 Ry

     iteration # 17     ecut=    40.00 Ry     beta=0.20
     CG style diagonalization
     ethr =  5.32E-12,  avg # of iterations =  3.8

     total cpu time spent up to now is        1.5 secs

     total energy              =     -12.25602944 Ry
     Harris-Foulkes estimate   =     -12.25602944 Ry
     estimated scf accuracy    <          2.5E-10 Ry

     iteration # 18     ecut=    40.00 Ry     beta=0.20
     CG style diagonalization
     ethr =  3.13E-12,  avg # of iterations =  3.0

     total cpu time spent up to now is        1.5 secs

     total energy              =     -12.25602944 Ry
     Harris-Foulkes estimate   =     -12.25602944 Ry
     estimated scf accuracy    <          1.6E-10 Ry

     iteration # 19     ecut=    40.00 Ry     beta=0.20
     CG style diagonalization
     ethr =  2.03E-12,  avg # of iterations =  3.0

     total cpu time spent up to now is        1.6 secs

     End of self-consistent calculation

          k = 0.0000 0.0000 0.0000 (  3625 PWs)   bands (ev):

   -11.1697  -6.5315  -6.5315  -6.5315

     highest occupied level (ev):    -6.5315

!    total energy              =     -12.25602944 Ry
     Harris-Foulkes estimate   =     -12.25602944 Ry
     estimated scf accuracy    <          4.8E-11 Ry

     The total energy is the sum of the following terms:

     one-electron contribution =     -11.03613186 Ry
     hartree contribution      =       6.19824792 Ry
     xc contribution           =      -4.51151872 Ry
     ewald contribution        =      -2.90662677 Ry

     convergence has been achieved in  19 iterations

     Writing output data file sil.save

     init_run     :      0.18s CPU      0.09s WALL (       1 calls)
     electrons    :      2.98s CPU      1.49s WALL (       1 calls)

     Called by init_run:
     wfcinit      :      0.02s CPU      0.01s WALL (       1 calls)
     potinit      :      0.05s CPU      0.03s WALL (       1 calls)

     Called by electrons:
     c_bands      :      1.75s CPU      0.87s WALL (      19 calls)
     sum_band     :      0.37s CPU      0.18s WALL (      19 calls)
     v_of_rho     :      0.52s CPU      0.26s WALL (      20 calls)
     mix_rho      :      0.32s CPU      0.17s WALL (      19 calls)

     Called by c_bands:
     init_us_2    :      0.04s CPU      0.02s WALL (      39 calls)
     rcgdiagg     :      1.46s CPU      0.74s WALL (      19 calls)
     wfcrot       :      0.28s CPU      0.14s WALL (      19 calls)

     Called by sum_band:

     Called by *cgdiagg:
     h_psi        :      1.70s CPU      0.84s WALL (     235 calls)
     rdiaghg      :      0.00s CPU      0.00s WALL (      19 calls)

     Called by h_psi:
     h_psi:pot    :      1.69s CPU      0.84s WALL (     235 calls)
     h_psi:calbec :      0.02s CPU      0.01s WALL (     235 calls)
     add_vuspsi   :      0.01s CPU      0.00s WALL (     235 calls)
     h_1psi       :      1.42s CPU      0.71s WALL (     216 calls)

     General routines
     calbec       :      0.03s CPU      0.01s WALL (     451 calls)
     fft          :      0.42s CPU      0.20s WALL (      79 calls)
     fftw         :      1.70s CPU      0.83s WALL (     546 calls)
     davcio       :      0.00s CPU      0.00s WALL (       1 calls)

     Parallel routines
     fft_scatter  :      0.07s CPU      0.05s WALL (     625 calls)

     PWSCF        :     3.23s CPU         1.62s WALL


   This run was terminated on:  14:16:19  14Sep2016            

=------------------------------------------------------------------------------=
   JOB DONE.
=------------------------------------------------------------------------------=
