<PP_INFO>
Generated using ld1 code
Author: P. Giannozzi    Generation date: 1993
Info: Na LDA 3s1 VonBarth-Car, l=1 local, core correction
    0        The Pseudo was generated with a Non-Relativistic Calculation
  0.00000000000E+00    Local Potential cutoff radius
nl pn  l   occ               Rcut            Rcut US             E pseu
3S  0  0  1.00      0.00000000000      0.00000000000      0.00000000000
</PP_INFO>


<PP_HEADER>
   0                   Version Number
  Na                   Element
   NC                  Norm - Conserving pseudopotential
    T                  Nonlinear Core Correction
 SLA  PZ   NOGX NOGC   PZ   Exchange-Correlation functional
    1.00000000000      Z valence
    0.00000000000      Total energy
  0.0000000  0.0000000 Suggested cutoff for wfc and rho
    0                  Max angular momentum component
  169                  Number of points in mesh
    1    1             Number of Wavefunctions, Number of Projectors
 Wavefunctions         nl  l   occ
                       3S  0  1.00
</PP_HEADER>


<PP_MESH>
  <PP_R>
  1.66505808079E-03  1.77244510078E-03  1.88675798852E-03  2.00844342410E-03
  2.13797689600E-03  2.27586455909E-03  2.42264521240E-03  2.57889240452E-03
  2.74521667476E-03  2.92226793881E-03  3.11073802833E-03  3.31136339431E-03
  3.52492798470E-03  3.75226630780E-03  3.99426669304E-03  4.25187476218E-03
  4.52609712435E-03  4.81800530940E-03  5.12873995489E-03  5.45951526321E-03
  5.81162374606E-03  6.18644127500E-03  6.58543245766E-03  7.01015636076E-03
  7.46227260217E-03  7.94354783595E-03  8.45586265551E-03  9.00121894217E-03
  9.58174768744E-03  1.01997173200E-02  1.08575425697E-02  1.15577939029E-02
  1.23032075670E-02  1.30966962820E-02  1.39413606223E-02  1.48405011322E-02
  1.57976312228E-02  1.68164909007E-02  1.79010613822E-02  1.90555806501E-02
  2.02845600135E-02  2.15928017360E-02  2.29854178004E-02  2.44678498845E-02
  2.60458906237E-02  2.77257062465E-02  2.95138606689E-02  3.14173411434E-02
  3.34435855610E-02  3.56005115161E-02  3.78965472435E-02  4.03406645528E-02
  4.29424138855E-02  4.57119616337E-02  4.86601298654E-02  5.17984386119E-02
  5.51391508830E-02  5.86953205844E-02  6.24808435265E-02  6.65105117224E-02
  7.08000711883E-02  7.53662834709E-02  8.02269911441E-02  8.54011875285E-02
  9.09090909091E-02  9.67722235380E-02  1.03013495733E-01  1.09657295402E-01
  1.16729583335E-01  1.24257994652E-01  1.32271946783E-01  1.40802754421E-01
  1.49883751882E-01  1.59550423360E-01  1.69840541585E-01  1.80794315417E-01
  1.92454546965E-01  2.04866798838E-01  2.18079572179E-01  2.32144496188E-01
  2.47116529860E-01  2.63054176743E-01  2.80019713538E-01  2.98079433449E-01
  3.17303905224E-01  3.37768248904E-01  3.59552429356E-01  3.82741568740E-01
  4.07426279122E-01  4.33703016543E-01  4.61674457925E-01  4.91449902286E-01
  5.23145697819E-01  5.56885696535E-01  5.92801738212E-01  6.31034165563E-01
  6.71732372630E-01  7.15055388540E-01  7.61172498921E-01  8.10263907382E-01
  8.62521439669E-01  9.18149293225E-01  9.77364835098E-01  1.04039945130E+00
  1.10749945097E+00  1.17892702882E+00  1.25496128964E+00  1.33589933898E+00
  1.42205744402E+00  1.51377226942E+00  1.61140219286E+00  1.71532870539E+00
  1.82595790211E+00  1.94372206901E+00  2.06908137214E+00  2.20252565569E+00
  2.34457635611E+00  2.49578853959E+00  2.65675307102E+00  2.82809892282E+00
  3.01049563261E+00  3.20465591951E+00  3.41133846905E+00  3.63135089780E+00
  3.86555290910E+00  4.11485965239E+00  4.38024529919E+00  4.66274684969E+00
  4.96346818483E+00  5.28358437977E+00  5.62434629549E+00  5.98708546658E+00
  6.37321930424E+00  6.78425663484E+00  7.22180359566E+00  7.68756991097E+00
  8.18337557277E+00  8.71115795246E+00  9.27297937115E+00  9.87103515825E+00
  1.05076622297E+01  1.11853482197E+01  1.19067412010E+01  1.26746600322E+01
  1.34921053730E+01  1.43622714087E+01  1.52885583320E+01  1.62745856292E+01
  1.73242062235E+01  1.84415215301E+01  1.96308974828E+01  2.08969815940E+01
  2.22447211149E+01  2.36793823670E+01  2.52065713203E+01  2.68322554988E+01
  2.85627872987E+01  3.04049288107E+01  3.23658782428E+01  3.44532980475E+01
  3.66753448630E+01  3.90407013855E+01  4.15586102972E+01  4.42389103817E+01
  4.70920749698E+01  5.01292528643E+01  5.33623119038E+01  5.68038853366E+01
  6.04674211859E+01
  </PP_R>
  <PP_RAB>
  1.04066130050E-04  1.10777818799E-04  1.17922374282E-04  1.25527714006E-04
  1.33623556000E-04  1.42241534943E-04  1.51415325775E-04  1.61180775282E-04
  1.71576042172E-04  1.82641746175E-04  1.94421126771E-04  2.06960212144E-04
  2.20307999044E-04  2.34516644237E-04  2.49641668315E-04  2.65742172636E-04
  2.82881070272E-04  3.01125331837E-04  3.20546247181E-04  3.41219703951E-04
  3.63226484129E-04  3.86652579688E-04  4.11589528604E-04  4.38134772547E-04
  4.66392037636E-04  4.96471739747E-04  5.28491415970E-04  5.62576183885E-04
  5.98859230465E-04  6.37482332502E-04  6.78596410606E-04  7.22362118932E-04
  7.68950472935E-04  8.18543517622E-04  8.71335038892E-04  9.27531320761E-04
  9.87351951423E-04  1.05103068129E-03  1.11881633639E-03  1.19097379063E-03
  1.26778500084E-03  1.34955010850E-03  1.43658861253E-03  1.52924061778E-03
  1.62786816398E-03  1.73285664040E-03  1.84461629181E-03  1.96358382146E-03
  2.09022409757E-03  2.22503196975E-03  2.36853420272E-03  2.52129153455E-03
  2.68390086785E-03  2.85699760211E-03  3.04125811659E-03  3.23740241324E-03
  3.44619693019E-03  3.66845753652E-03  3.90505272040E-03  4.15690698265E-03
  4.42500444927E-03  4.71039271693E-03  5.01418694650E-03  5.33757422053E-03
  5.68181818182E-03  6.04826397112E-03  6.43834348333E-03  6.85358096262E-03
  7.29559895845E-03  7.76612466576E-03  8.26699667397E-03  8.80017215133E-03
  9.36773449261E-03  9.97190146000E-03  1.06150338490E-02  1.12996447135E-02
  1.20284091853E-02  1.28041749273E-02  1.36299732612E-02  1.45090310117E-02
  1.54447831162E-02  1.64408860464E-02  1.75012320961E-02  1.86299645906E-02
  1.98314940765E-02  2.11105155565E-02  2.24720268348E-02  2.39213480463E-02
  2.54641424451E-02  2.71064385339E-02  2.88546536203E-02  3.07156188928E-02
  3.26966061137E-02  3.48053560334E-02  3.70501086382E-02  3.94396353477E-02
  4.19832732894E-02  4.46909617838E-02  4.75732811825E-02  5.06414942114E-02
  5.39075899793E-02  5.73843308266E-02  6.10853021936E-02  6.50249657064E-02
  6.92187156858E-02  7.36829393010E-02  7.84350806027E-02  8.34937086863E-02
  8.88785902511E-02  9.46107668387E-02  1.00712637054E-01  1.07208044087E-01
  1.14122368882E-01  1.21482629313E-01  1.29317585759E-01  1.37657853481E-01
  1.46536022257E-01  1.55986783724E-01  1.66047066939E-01  1.76756182676E-01
  1.88155977038E-01  2.00290994969E-01  2.13208654316E-01  2.26959431113E-01
  2.41597056819E-01  2.57178728274E-01  2.73765331199E-01  2.91421678106E-01
  3.10216761552E-01  3.30224023735E-01  3.51521643468E-01  3.74192841661E-01
  3.98326206515E-01  4.24016039677E-01  4.51362724729E-01  4.80473119436E-01
  5.11460973298E-01  5.44447372029E-01  5.79561210697E-01  6.16939697391E-01
  6.56728889359E-01  6.99084263734E-01  7.44171325061E-01  7.92166252013E-01
  8.43256585810E-01  8.97641963041E-01  9.55534895749E-01  1.01716160183E+00
  1.08276288897E+00  1.15259509563E+00  1.22693109267E+00  1.30606134963E+00
  1.39029506968E+00  1.47996139794E+00  1.57541070752E+00  1.67701596867E+00
  1.78517420617E+00  1.90030805067E+00  2.02286739017E+00  2.15333112797E+00
  2.29220905394E+00  2.44004383660E+00  2.59741314357E+00  2.76493189885E+00
  2.94325468562E+00  3.13307830402E+00  3.33514449399E+00  3.55024283354E+00
  3.77921382412E+00
  </PP_RAB>
</PP_MESH>


<PP_NLCC>
  2.06880039756E-02  2.06880045049E-02  2.06880051047E-02  2.06880057844E-02
  2.06880065546E-02  2.06880074273E-02  2.06880084162E-02  2.06880095368E-02
  2.06880108065E-02  2.06880122453E-02  2.06880138757E-02  2.06880157232E-02
  2.06880178166E-02  2.06880201887E-02  2.06880228766E-02  2.06880259224E-02
  2.06880293736E-02  2.06880332843E-02  2.06880377156E-02  2.06880427367E-02
  2.06880484263E-02  2.06880548732E-02  2.06880621782E-02  2.06880704554E-02
  2.06880798343E-02  2.06880904614E-02  2.06881025027E-02  2.06881161463E-02
  2.06881316052E-02  2.06881491208E-02  2.06881689664E-02  2.06881914518E-02
  2.06882169276E-02  2.06882457910E-02  2.06882784918E-02  2.06883155393E-02
  2.06883575101E-02  2.06884050571E-02  2.06884589194E-02  2.06885199334E-02
  2.06885890455E-02  2.06886673269E-02  2.06887559890E-02  2.06888564019E-02
  2.06889701149E-02  2.06890988789E-02  2.06892446726E-02  2.06894097308E-02
  2.06895965765E-02  2.06898080571E-02  2.06900473833E-02  2.06903181743E-02
  2.06906245055E-02  2.06909709631E-02  2.06913627023E-02  2.06918055116E-02
  2.06923058820E-02  2.06928710816E-02  2.06935092336E-02  2.06942293994E-02
  2.06950416622E-02  2.06959572114E-02  2.06969884230E-02  2.06981489326E-02
  2.06994536937E-02  2.07009190135E-02  2.07025625547E-02  2.07044032876E-02
  2.07064613725E-02  2.07087579467E-02  2.07113147794E-02  2.07141537521E-02
  2.07172961041E-02  2.07207613699E-02  2.07245659111E-02  2.07287209223E-02
  2.07332297549E-02  2.07380843637E-02  2.07432606307E-02  2.07487122597E-02
  2.07543628623E-02  2.07600957676E-02  2.07657409869E-02  2.07710586458E-02
  2.07757180659E-02  2.07792715370E-02  2.07811216771E-02  2.07804811491E-02
  2.07763234025E-02  2.07673230830E-02  2.07517848409E-02  2.07275595484E-02
  2.06919475010E-02  2.06415891565E-02  2.05723455188E-02  2.04791725929E-02
  2.03559976244E-02  2.01956092991E-02  1.99895798272E-02  1.97282438529E-02
  1.94007670816E-02  1.89953455732E-02  1.84995832758E-02  1.79010980299E-02
  1.71884012819E-02  1.63520793391E-02  1.53862688108E-02  1.42903613157E-02
  1.30707910790E-02  1.17426588777E-02  1.03308430024E-02  8.87017293186E-03
  7.40423887107E-03  5.98253107053E-03  4.65588498647E-03  3.47064683465E-03
  2.46248829828E-03  1.65121850703E-03  1.03803766768E-03  6.06261050174E-04
  3.25606170668E-04  1.58957562385E-04  6.96206757409E-05  2.69545856656E-05
  9.07172724159E-06  2.60423088203E-06  6.24146101583E-07  1.21889468716E-07
  1.88704163234E-08  2.24499016085E-09  1.98132761378E-10  1.24643029151E-11
  5.34206559143E-13  1.48194212656E-14  0.00000000000E+00  0.00000000000E+00
  0.00000000000E+00  0.00000000000E+00  0.00000000000E+00  0.00000000000E+00
  0.00000000000E+00  0.00000000000E+00  0.00000000000E+00  0.00000000000E+00
  0.00000000000E+00  0.00000000000E+00  0.00000000000E+00  0.00000000000E+00
  0.00000000000E+00  0.00000000000E+00  0.00000000000E+00  0.00000000000E+00
  0.00000000000E+00  0.00000000000E+00  0.00000000000E+00  0.00000000000E+00
  0.00000000000E+00  0.00000000000E+00  0.00000000000E+00  0.00000000000E+00
  0.00000000000E+00  0.00000000000E+00  0.00000000000E+00  0.00000000000E+00
  0.00000000000E+00  0.00000000000E+00  0.00000000000E+00  0.00000000000E+00
  0.00000000000E+00
</PP_NLCC>


<PP_LOCAL>
 -1.49109934525E+00 -1.49109860396E+00 -1.49109776397E+00 -1.49109681214E+00
 -1.49109573357E+00 -1.49109451140E+00 -1.49109312649E+00 -1.49109155719E+00
 -1.49108977895E+00 -1.49108776393E+00 -1.49108548062E+00 -1.49108289330E+00
 -1.49107996148E+00 -1.49107663931E+00 -1.49107287480E+00 -1.49106860907E+00
 -1.49106377537E+00 -1.49105829810E+00 -1.49105209156E+00 -1.49104505867E+00
 -1.49103708940E+00 -1.49102805909E+00 -1.49101782647E+00 -1.49100623149E+00
 -1.49099309277E+00 -1.49097820480E+00 -1.49096133472E+00 -1.49094221865E+00
 -1.49092055762E+00 -1.49089601287E+00 -1.49086820054E+00 -1.49083668571E+00
 -1.49080097558E+00 -1.49076051181E+00 -1.49071466177E+00 -1.49066270867E+00
 -1.49060384044E+00 -1.49053713698E+00 -1.49046155591E+00 -1.49037591626E+00
 -1.49027888016E+00 -1.49016893199E+00 -1.49004435484E+00 -1.48990320384E+00
 -1.48974327601E+00 -1.48956207615E+00 -1.48935677819E+00 -1.48912418155E+00
 -1.48886066181E+00 -1.48856211488E+00 -1.48822389398E+00 -1.48784073846E+00
 -1.48740669344E+00 -1.48691501909E+00 -1.48635808844E+00 -1.48572727207E+00
 -1.48501280843E+00 -1.48420365780E+00 -1.48328733823E+00 -1.48224974134E+00
 -1.48107492579E+00 -1.47974488608E+00 -1.47823929417E+00 -1.47653521138E+00
 -1.47460676773E+00 -1.47242480626E+00 -1.46995648959E+00 -1.46716486642E+00
 -1.46400839607E+00 -1.46044042965E+00 -1.45640864777E+00 -1.45185445571E+00
 -1.44671233918E+00 -1.44090918657E+00 -1.43436358685E+00 -1.42698511736E+00
 -1.41867364172E+00 -1.40931864615E+00 -1.39879865247E+00 -1.38698075893E+00
 -1.37372037573E+00 -1.35886124155E+00 -1.34223583063E+00 -1.32366628799E+00
 -1.30296606213E+00 -1.27994244145E+00 -1.25440023939E+00 -1.22614691450E+00
 -1.19499944912E+00 -1.16079334048E+00 -1.12339407065E+00 -1.08271140520E+00
 -1.03871680667E+00 -9.91464115158E-01 -9.41113416293E-01 -8.87957650950E-01
 -8.32450986563E-01 -7.75237232274E-01 -7.17175620903E-01 -6.59360110989E-01
 -6.03127049052E-01 -5.50044730224E-01 -5.01877383312E-01 -4.60515819488E-01
 -4.27868023223E-01 -4.05706055547E-01 -3.95471500168E-01 -3.98050755440E-01
 -4.13543508377E-01 -4.41061240377E-01 -4.78604404625E-01 -5.23071926093E-01
 -5.70448707770E-01 -6.16190558095E-01 -6.55780346678E-01 -6.85371424799E-01
 -7.02382013015E-01 -7.05882623406E-01 -6.96650503431E-01 -6.76855426338E-01
 -6.49464126674E-01 -6.17552797443E-01 -5.83742807039E-01 -5.49904494981E-01
 -5.17145150114E-01 -4.85984636663E-01 -4.56584012946E-01 -4.28929954878E-01
 -4.02943847573E-01 -3.78530891163E-01 -3.55596879806E-01 -3.34052355002E-01
 -3.13813145997E-01 -2.94800168633E-01 -2.76939129334E-01 -2.60160235700E-01
 -2.44397923841E-01 -2.29590602181E-01 -2.15680410788E-01 -2.02612995287E-01
 -1.90337294469E-01 -1.78805340764E-01 -1.67972072815E-01 -1.57795159390E-01
 -1.48234833980E-01 -1.39253739405E-01 -1.30816781842E-01 -1.22890993698E-01
 -1.15445404782E-01 -1.08450921294E-01 -1.01880212138E-01 -9.57076021244E-02
 -8.99089716462E-02 -8.44616624286E-02 -7.93443889923E-02 -7.45371554804E-02
 -7.00211775232E-02 -6.57788088389E-02 -6.17934722796E-02 -5.80495950560E-02
 -5.45325478867E-02 -5.12285878332E-02 -4.81248046000E-02 -4.52090700866E-02
 -4.24699909970E-02 -3.98968643202E-02 -3.74796355077E-02 -3.52088591854E-02
 -3.30756622455E-02
</PP_LOCAL>


<PP_NONLOCAL>
  <PP_BETA>
    1    0             Beta    L
   141
  7.92965922595E-04  8.44107829138E-04  8.98548071540E-04  9.56499454046E-04
  1.01818836030E-03  1.08385591406E-03  1.15375858004E-03  1.22816960400E-03
  1.30737968936E-03  1.39169843665E-03  1.48145527372E-03  1.57700089421E-03
  1.67870861062E-03  1.78697596096E-03  1.90222597539E-03  2.02490895043E-03
  2.15550430668E-03  2.29452227539E-03  2.44250617660E-03  2.60003410140E-03
  2.76772177853E-03  2.94622433520E-03  3.13623924104E-03  3.33850899260E-03
  3.55382396160E-03  3.78302549032E-03  4.02700923270E-03  4.28672840025E-03
  4.56319792798E-03  4.85749803168E-03  5.17077867947E-03  5.50426395650E-03
  5.85925691160E-03  6.23714462619E-03  6.63940366815E-03  7.06760566849E-03
  7.52342385875E-03  8.00863894679E-03  8.52514702959E-03  9.07496621985E-03
  9.66024408543E-03  1.02832674868E-02  1.09464707989E-02  1.16524448548E-02
  1.24039473303E-02  1.32039145153E-02  1.40554710210E-02  1.49619432751E-02
  1.59268724765E-02  1.69540260508E-02  1.80474159393E-02  1.92113117004E-02
  2.04502592331E-02  2.17690930314E-02  2.31729636795E-02  2.46673480827E-02
  2.62580775378E-02  2.79513569001E-02  2.97537894403E-02  3.16723990216E-02
  3.37146613283E-02  3.58885252951E-02  3.82024486638E-02  4.06654223817E-02
  4.32870062291E-02  4.60773588512E-02  4.90472734303E-02  5.22082076885E-02
  5.55723203870E-02  5.91524994471E-02  6.29623964543E-02  6.70164464356E-02
  7.13298881487E-02  7.59187741812E-02  8.07999604521E-02  8.59910879043E-02
  9.15105060256E-02  9.73772003750E-02  1.03610640882E-01  1.10230533700E-01
  1.17256515066E-01  1.24707667362E-01  1.32601901217E-01  1.40955066862E-01
  1.49779737241E-01  1.59083612528E-01  1.68867377796E-01  1.79121895119E-01
  1.89824532320E-01  2.00934448033E-01  2.12386592531E-01  2.24084291791E-01
  2.35890097500E-01  2.47614990566E-01  2.59005965643E-01  2.69732583276E-01
  2.79373507079E-01  2.87404926770E-01  2.93193979270E-01  2.96001603555E-01
  2.95000927312E-01  2.89318507983E-01  2.78106194222E-01  2.60649725996E-01
  2.36514699670E-01  2.05721342321E-01  1.68923357114E-01  1.27548689858E-01
  8.38431954135E-02  4.07542348544E-02  1.61083957829E-03 -3.03915788164E-02
 -5.28162190186E-02 -6.45549993859E-02 -6.61423274458E-02 -5.96566553511E-02
 -4.81891274421E-02 -3.50359934573E-02 -2.29005236781E-02 -1.33895992363E-02
 -6.94799943818E-03 -3.16679333426E-03 -1.25172233811E-03 -4.22596479303E-04
 -1.19715515182E-04 -2.78763963817E-05 -5.21061850885E-06 -7.60863788702E-07
 -8.41393013389E-08 -6.80106634885E-09 -3.85941513461E-10 -1.46865457616E-11
 -3.55766397581E-13 -5.17069970618E-15 -4.50868831159E-17  0.00000000000E+00
  0.00000000000E+00  0.00000000000E+00  0.00000000000E+00  0.00000000000E+00
  0.00000000000E+00
  </PP_BETA>
  <PP_DIJ>
    1                  Number of nonzero Dij
    1    1  3.20676956269E+02
  </PP_DIJ>
</PP_NONLOCAL>


<PP_PSWFC>
3S    0  1.00          Wavefunction
  9.35157380000E-05  9.95470290000E-05  1.05967310000E-04  1.12801680000E-04
  1.20076840000E-04  1.27821230000E-04  1.36065100000E-04  1.44840680000E-04
  1.54182260000E-04  1.64126360000E-04  1.74711840000E-04  1.85980070000E-04
  1.97975090000E-04  2.10743800000E-04  2.24336110000E-04  2.38805150000E-04
  2.54207490000E-04  2.70603340000E-04  2.88056820000E-04  3.06636160000E-04
  3.26414040000E-04  3.47467800000E-04  3.69879790000E-04  3.93737690000E-04
  4.19134850000E-04  4.46170660000E-04  4.74950950000E-04  5.05588380000E-04
  5.38202940000E-04  5.72922380000E-04  6.09882750000E-04  6.49228930000E-04
  6.91115220000E-04  7.35705960000E-04  7.83176200000E-04  8.33712390000E-04
  8.87513190000E-04  9.44790210000E-04  1.00576900000E-03  1.07068990000E-03
  1.13980900000E-03  1.21339940000E-03  1.29175230000E-03  1.37517820000E-03
  1.46400830000E-03  1.55859610000E-03  1.65931880000E-03  1.76657920000E-03
  1.88080760000E-03  2.00246360000E-03  2.13203880000E-03  2.27005900000E-03
  2.41708720000E-03  2.57372600000E-03  2.74062200000E-03  2.91846840000E-03
  3.10801000000E-03  3.31004750000E-03  3.52544290000E-03  3.75512510000E-03
  4.00009720000E-03  4.26144340000E-03  4.54033850000E-03  4.83805720000E-03
  5.15598610000E-03  5.49563670000E-03  5.85866110000E-03  6.24686950000E-03
  6.66225150000E-03  7.10700010000E-03  7.58354100000E-03  8.09456570000E-03
  8.64307150000E-03  9.23240870000E-03  9.86633570000E-03  1.05490860000E-02
  1.12854440000E-02  1.20808410000E-02  1.29414660000E-02  1.38743950000E-02
  1.48877510000E-02  1.59908890000E-02  1.71946230000E-02  1.85114920000E-02
  1.99560750000E-02  2.15453700000E-02  2.32992410000E-02  2.52409480000E-02
  2.73977690000E-02  2.98017290000E-02  3.24904440000E-02  3.55081010000E-02
  3.89065560000E-02  4.27465670000E-02  4.70991230000E-02  5.20468370000E-02
  5.76853130000E-02  6.41243510000E-02  7.14887970000E-02  7.99187330000E-02
  8.95686120000E-02  1.00604800000E-01  1.13200890000E-01  1.27530110000E-01
  1.43754030000E-01  1.62007290000E-01  1.82378060000E-01  2.04885180000E-01
  2.29453720000E-01  2.55892070000E-01  2.83874770000E-01  3.12936010000E-01
  3.42477700000E-01  3.71794560000E-01  4.00114390000E-01  4.26648500000E-01
  4.50643410000E-01  4.71424510000E-01  4.88424540000E-01  5.01194270000E-01
  5.09399010000E-01  5.12808390000E-01  5.11287920000E-01  5.04797780000E-01
  4.93399140000E-01  4.77264570000E-01  4.56687260000E-01  4.32084910000E-01
  4.03996030000E-01  3.73067980000E-01  3.40036980000E-01  3.05701060000E-01
  2.70887090000E-01  2.36413820000E-01  2.03053270000E-01  1.71493590000E-01
  1.42306730000E-01  1.15924040000E-01  9.26222810000E-02  7.25215170000E-02
  5.55947800000E-02  4.16880200000E-02  3.05476180000E-02  2.18519650000E-02
  1.52434270000E-02  1.03574510000E-02  6.84636990000E-03  4.39658760000E-03
  2.73886270000E-03  1.65232340000E-03  9.63442170000E-04  5.41578130000E-04
  2.93246050000E-04  1.52619880000E-04  7.61526280000E-05  3.63301150000E-05
  1.65230730000E-05  7.14176740000E-06  2.92393500000E-06  1.12988090000E-06
  4.10531450000E-07  1.39679930000E-07  4.43084330000E-08  1.30421840000E-08
  3.54484120000E-09  8.88226900000E-10  2.20100830000E-10  4.97491180000E-11
  1.01962010000E-11
</PP_PSWFC>


<PP_RHOATOM>
  8.74519325368E-09  9.90961098273E-09  1.12290707886E-08  1.27242190108E-08
  1.44184475044E-08  1.63382668387E-08  1.85137114380E-08  2.09788225829E-08
  2.37721692987E-08  2.69374620468E-08  3.05242270362E-08  3.45885864372E-08
  3.91941362605E-08  4.44129492384E-08  5.03266902499E-08  5.70278996665E-08
  6.46214479721E-08  7.32261676192E-08  8.29767315485E-08  9.40257346195E-08
  1.06546125509E-07  1.20733872037E-07  1.36811059050E-07  1.55029368527E-07
  1.75674022485E-07  1.99068257845E-07  2.25578404906E-07  2.55619609991E-07
  2.89662404625E-07  3.28240053505E-07  3.71956968748E-07  4.21498203549E-07
  4.77640247316E-07  5.41263259580E-07  6.13364960246E-07  6.95076349240E-07
  7.87679662424E-07  8.92628540912E-07  1.01157128136E-06  1.14637686196E-06
  1.29916455648E-06  1.47233810392E-06  1.66862400456E-06  1.89111508176E-06
  2.14332030247E-06  2.42922180294E-06  2.75333888003E-06  3.12080206987E-06
  3.53743722822E-06  4.00986046932E-06  4.54558944471E-06  5.15316786348E-06
  5.84231053240E-06  6.62406552308E-06  7.51100894688E-06  8.51745780180E-06
  9.65972616010E-06  1.09564144523E-05  1.24287476412E-05  1.41009645167E-05
  1.60007776094E-05  1.81598998514E-05  2.06146736946E-05  2.34067974705E-05
  2.65841926634E-05  3.02020227384E-05  3.43239098847E-05  3.90233785500E-05
  4.43855950493E-05  5.05094504214E-05  5.75100940987E-05  6.55219938716E-05
  7.47026849541E-05  8.52373704038E-05  9.73445801451E-05  1.11283215435E-04
  1.27361246277E-04  1.45946719267E-04  1.67481542229E-04  1.92498836616E-04
  2.21645129838E-04  2.55708531010E-04  2.95655060112E-04  3.42675336066E-04
  3.98244929406E-04  4.64202968437E-04  5.42854631176E-04  6.37105455939E-04
  7.50637746177E-04  8.88143051389E-04  1.05562895132E-03  1.26082523663E-03
  1.51372009978E-03  1.82726899029E-03  2.21832738737E-03  2.70887324170E-03
  3.32759533591E-03  4.11193239117E-03  5.11064809651E-03  6.38700388433E-03
  8.02253625561E-03  1.01213257830E-02  1.28144414968E-02  1.62639289566E-02
  2.06652211412E-02  2.62463620131E-02  3.32617567694E-02  4.19779369836E-02
  5.26490096218E-02  6.54807514889E-02  8.05848850426E-02  9.79289463547E-02
  1.17290974997E-01  1.38231194846E-01  1.60091525085E-01  1.82028942552E-01
  2.03079482976E-01  2.22241068629E-01  2.38558531274E-01  2.51195696281E-01
  2.59487351389E-01  2.62972444854E-01  2.61415337138E-01  2.54820798693E-01
  2.43442711353E-01  2.27781469777E-01  2.08563253446E-01  1.86697369450E-01
  1.63212792256E-01  1.39179717701E-01  1.15625147768E-01  9.34531380851E-02
  7.33798155287E-02  5.58914942870E-02  4.12306304577E-02  2.94100514111E-02
  2.02512054033E-02  1.34383830499E-02  8.57888693764E-03  5.25937042798E-03
  3.09077956325E-03  1.73789101152E-03  9.33156965474E-04  4.77508374361E-04
  2.32362066704E-04  1.07276791217E-04  4.68727808076E-05  1.93299825245E-05
  7.50136888945E-06  2.73017261819E-06  9.28220814934E-07  2.93306870894E-07
  8.59932458406E-08  2.32928277712E-08  5.79922275131E-09  1.31987725591E-09
  2.73011941363E-10  5.10048415957E-11  8.54939588422E-12  1.27663084818E-12
  1.68536071439E-13  1.95104828448E-14  1.96323723492E-15  1.70098563490E-16
  1.25658991332E-17  7.88947025884E-19  4.84443753667E-20  2.47497474178E-21
  1.03962514832E-22
</PP_RHOATOM>
