File written on 10Feb2006 at 15:46:41 

calc_only_A  :  F

begin real_lattice
   1.745491   1.745491   1.745491
  -1.745491   1.745491   1.745491
  -1.745491  -1.745491   1.745491
end real_lattice

begin recip_lattice
   1.799833   0.000000   1.799833
  -1.799833   1.799833   0.000000
   0.000000  -1.799833   1.799833
end recip_lattice

begin kpoints
    64
   0.00000   0.00000   0.00000
   0.00000   0.25000   0.50000
   0.00000   0.00000   0.00000
   0.00000   0.00000   0.00000
   0.25000   0.50000   0.75000
   0.00000   0.00000   0.00000
   0.00000   0.00000   0.25000
   0.50000   0.75000   0.00000
   0.00000   0.00000   0.00000
   0.00000   0.25000   0.25000
   0.75000   0.00000   0.25000
   0.00000   0.00000   0.00000
   0.25000   0.25000   0.25000
   0.00000   0.25000   0.50000
   0.00000   0.00000   0.00000
   0.25000   0.25000   0.25000
   0.25000   0.50000   0.75000
   0.00000   0.00000   0.00000
   0.25000   0.25000   0.50000
   0.50000   0.75000   0.00000
   0.00000   0.00000   0.00000
   0.25000   0.50000   0.50000
   0.75000   0.00000   0.25000
   0.00000   0.00000   0.00000
   0.50000   0.50000   0.50000
   0.00000   0.25000   0.50000
   0.00000   0.00000   0.00000
   0.50000   0.50000   0.50000
   0.25000   0.50000   0.75000
   0.00000   0.00000   0.00000
   0.50000   0.50000   0.75000
   0.50000   0.75000   0.00000
   0.00000   0.00000   0.00000
   0.50000   0.75000   0.75000
   0.75000   0.00000   0.25000
   0.00000   0.00000   0.00000
   0.75000   0.75000   0.75000
   0.00000   0.25000   0.50000
   0.00000   0.00000   0.00000
   0.75000   0.75000   0.75000
   0.25000   0.50000   0.75000
   0.00000   0.00000   0.00000
   0.75000   0.75000   0.00000
   0.50000   0.75000   0.00000
   0.00000   0.00000   0.25000
   0.75000   0.00000   0.00000
   0.75000   0.00000   0.25000
   0.00000   0.25000   0.25000
   0.00000   0.00000   0.00000
   0.00000   0.25000   0.50000
   0.25000   0.25000   0.25000
   0.00000   0.00000   0.00000
   0.25000   0.50000   0.75000
   0.25000   0.25000   0.25000
   0.00000   0.00000   0.25000
   0.50000   0.75000   0.00000
   0.25000   0.25000   0.25000
   0.00000   0.25000   0.25000
   0.75000   0.00000   0.25000
   0.25000   0.25000   0.25000
   0.25000   0.25000   0.25000
   0.00000   0.25000   0.50000
   0.25000   0.25000   0.25000
   0.25000   0.25000   0.25000
end kpoints

begin projections
     4
   0.00000    0.00000    0.00000    -3  1  1
     0.000  0.000  1.000   1.000  0.000  0.000    1.00   1.00
   0.00000    0.00000    0.00000    -3  2  1
     0.000  0.000  1.000   1.000  0.000  0.000    1.00   1.00
   0.00000    0.00000    0.00000    -3  3  1
     0.000  0.000  1.000   1.000  0.000  0.000    1.00   1.00
   0.00000    0.00000    0.00000    -3  4  1
     0.000  0.000  1.000   1.000  0.000  0.000    1.00   1.00
end projections

begin nnkpts
  12
     1     2      0   0   0
     1     4      0  -1   0
     1     5      0   0   0
     1     6      0   0   0
     1    13     -1   0   0
     1    16     -1  -1   0
     1    17      0   0   0
     1    18      0   0   0
     1    29     -1   0   0
     1    49      0   0  -1
     1    52      0  -1  -1
     1    53      0   0  -1
     2     1      0   0   0
     2     3      0   0   0
     2     6      0   0   0
     2     7      0   0   0
     2    13     -1   0   0
     2    14     -1   0   0
     2    18      0   0   0
     2    19      0   0   0
     2    30     -1   0   0
     2    49      0   0  -1
     2    50      0   0  -1
     2    54      0   0  -1
     3     2      0   0   0
     3     4      0   0   0
     3     7      0   0   0
     3     8      0   0   0
     3    14     -1   0   0
     3    15     -1   0   0
     3    19      0   0   0
     3    20      0   0   0
     3    31     -1   0   0
     3    50      0   0  -1
     3    51      0   0  -1
     3    55      0   0  -1
     4     1      0   1   0
     4     3      0   0   0
     4     5      0   1   0
     4     8      0   0   0
     4    15     -1   0   0
     4    16     -1   0   0
     4    17      0   1   0
     4    20      0   0   0
     4    32     -1   0   0
     4    51      0   0  -1
     4    52      0   0  -1
     4    56      0   0  -1
     5     1      0   0   0
     5     4      0  -1   0
     5     6      0   0   0
     5     8      0  -1   0
     5     9      0   0   0
     5    10      0   0   0
     5    17      0   0   0
     5    21      0   0   0
     5    22      0   0   0
     5    53      0   0  -1
     5    56      0  -1  -1
     5    57      0   0  -1
     6     1      0   0   0
     6     2      0   0   0
     6     5      0   0   0
     6     7      0   0   0
     6    10      0   0   0
     6    11      0   0   0
     6    18      0   0   0
     6    22      0   0   0
     6    23      0   0   0
     6    53      0   0  -1
     6    54      0   0  -1
     6    58      0   0  -1
     7     2      0   0   0
     7     3      0   0   0
     7     6      0   0   0
     7     8      0   0   0
     7    11      0   0   0
     7    12      0   0   0
     7    19      0   0   0
     7    23      0   0   0
     7    24      0   0   0
     7    54      0   0  -1
     7    55      0   0  -1
     7    59      0   0  -1
     8     3      0   0   0
     8     4      0   0   0
     8     5      0   1   0
     8     7      0   0   0
     8     9      0   1   0
     8    12      0   0   0
     8    20      0   0   0
     8    21      0   1   0
     8    24      0   0   0
     8    55      0   0  -1
     8    56      0   0  -1
     8    60      0   0  -1
     9     5      0   0   0
     9     8      0  -1   0
     9    10      0   0   0
     9    12      0  -1   0
     9    13      0   0   0
     9    14      0   0   0
     9    21      0   0   0
     9    25      0   0   0
     9    26      0   0   0
     9    57      0   0  -1
     9    60      0  -1  -1
     9    61      0   0  -1
    10     5      0   0   0
    10     6      0   0   0
    10     9      0   0   0
    10    11      0   0   0
    10    14      0   0   0
    10    15      0   0   0
    10    22      0   0   0
    10    26      0   0   0
    10    27      0   0   0
    10    57      0   0  -1
    10    58      0   0  -1
    10    62      0   0  -1
    11     6      0   0   0
    11     7      0   0   0
    11    10      0   0   0
    11    12      0   0   0
    11    15      0   0   0
    11    16      0   0   0
    11    23      0   0   0
    11    27      0   0   0
    11    28      0   0   0
    11    58      0   0  -1
    11    59      0   0  -1
    11    63      0   0  -1
    12     7      0   0   0
    12     8      0   0   0
    12     9      0   1   0
    12    11      0   0   0
    12    13      0   1   0
    12    16      0   0   0
    12    24      0   0   0
    12    25      0   1   0
    12    28      0   0   0
    12    59      0   0  -1
    12    60      0   0  -1
    12    64      0   0  -1
    13     1      1   0   0
    13     2      1   0   0
    13     9      0   0   0
    13    12      0  -1   0
    13    14      0   0   0
    13    16      0  -1   0
    13    25      0   0   0
    13    29      0   0   0
    13    30      0   0   0
    13    49      1   0  -1
    13    61      0   0  -1
    13    64      0  -1  -1
    14     2      1   0   0
    14     3      1   0   0
    14     9      0   0   0
    14    10      0   0   0
    14    13      0   0   0
    14    15      0   0   0
    14    26      0   0   0
    14    30      0   0   0
    14    31      0   0   0
    14    50      1   0  -1
    14    61      0   0  -1
    14    62      0   0  -1
    15     3      1   0   0
    15     4      1   0   0
    15    10      0   0   0
    15    11      0   0   0
    15    14      0   0   0
    15    16      0   0   0
    15    27      0   0   0
    15    31      0   0   0
    15    32      0   0   0
    15    51      1   0  -1
    15    62      0   0  -1
    15    63      0   0  -1
    16     1      1   1   0
    16     4      1   0   0
    16    11      0   0   0
    16    12      0   0   0
    16    13      0   1   0
    16    15      0   0   0
    16    28      0   0   0
    16    29      0   1   0
    16    32      0   0   0
    16    52      1   0  -1
    16    63      0   0  -1
    16    64      0   0  -1
    17     1      0   0   0
    17     4      0  -1   0
    17     5      0   0   0
    17    18      0   0   0
    17    20      0  -1   0
    17    21      0   0   0
    17    22      0   0   0
    17    29     -1   0   0
    17    32     -1  -1   0
    17    33      0   0   0
    17    34      0   0   0
    17    45     -1   0   0
    18     1      0   0   0
    18     2      0   0   0
    18     6      0   0   0
    18    17      0   0   0
    18    19      0   0   0
    18    22      0   0   0
    18    23      0   0   0
    18    29     -1   0   0
    18    30     -1   0   0
    18    34      0   0   0
    18    35      0   0   0
    18    46     -1   0   0
    19     2      0   0   0
    19     3      0   0   0
    19     7      0   0   0
    19    18      0   0   0
    19    20      0   0   0
    19    23      0   0   0
    19    24      0   0   0
    19    30     -1   0   0
    19    31     -1   0   0
    19    35      0   0   0
    19    36      0   0   0
    19    47     -1   0   0
    20     3      0   0   0
    20     4      0   0   0
    20     8      0   0   0
    20    17      0   1   0
    20    19      0   0   0
    20    21      0   1   0
    20    24      0   0   0
    20    31     -1   0   0
    20    32     -1   0   0
    20    33      0   1   0
    20    36      0   0   0
    20    48     -1   0   0
    21     5      0   0   0
    21     8      0  -1   0
    21     9      0   0   0
    21    17      0   0   0
    21    20      0  -1   0
    21    22      0   0   0
    21    24      0  -1   0
    21    25      0   0   0
    21    26      0   0   0
    21    33      0   0   0
    21    37      0   0   0
    21    38      0   0   0
    22     5      0   0   0
    22     6      0   0   0
    22    10      0   0   0
    22    17      0   0   0
    22    18      0   0   0
    22    21      0   0   0
    22    23      0   0   0
    22    26      0   0   0
    22    27      0   0   0
    22    34      0   0   0
    22    38      0   0   0
    22    39      0   0   0
    23     6      0   0   0
    23     7      0   0   0
    23    11      0   0   0
    23    18      0   0   0
    23    19      0   0   0
    23    22      0   0   0
    23    24      0   0   0
    23    27      0   0   0
    23    28      0   0   0
    23    35      0   0   0
    23    39      0   0   0
    23    40      0   0   0
    24     7      0   0   0
    24     8      0   0   0
    24    12      0   0   0
    24    19      0   0   0
    24    20      0   0   0
    24    21      0   1   0
    24    23      0   0   0
    24    25      0   1   0
    24    28      0   0   0
    24    36      0   0   0
    24    37      0   1   0
    24    40      0   0   0
    25     9      0   0   0
    25    12      0  -1   0
    25    13      0   0   0
    25    21      0   0   0
    25    24      0  -1   0
    25    26      0   0   0
    25    28      0  -1   0
    25    29      0   0   0
    25    30      0   0   0
    25    37      0   0   0
    25    41      0   0   0
    25    42      0   0   0
    26     9      0   0   0
    26    10      0   0   0
    26    14      0   0   0
    26    21      0   0   0
    26    22      0   0   0
    26    25      0   0   0
    26    27      0   0   0
    26    30      0   0   0
    26    31      0   0   0
    26    38      0   0   0
    26    42      0   0   0
    26    43      0   0   0
    27    10      0   0   0
    27    11      0   0   0
    27    15      0   0   0
    27    22      0   0   0
    27    23      0   0   0
    27    26      0   0   0
    27    28      0   0   0
    27    31      0   0   0
    27    32      0   0   0
    27    39      0   0   0
    27    43      0   0   0
    27    44      0   0   0
    28    11      0   0   0
    28    12      0   0   0
    28    16      0   0   0
    28    23      0   0   0
    28    24      0   0   0
    28    25      0   1   0
    28    27      0   0   0
    28    29      0   1   0
    28    32      0   0   0
    28    40      0   0   0
    28    41      0   1   0
    28    44      0   0   0
    29     1      1   0   0
    29    13      0   0   0
    29    16      0  -1   0
    29    17      1   0   0
    29    18      1   0   0
    29    25      0   0   0
    29    28      0  -1   0
    29    30      0   0   0
    29    32      0  -1   0
    29    41      0   0   0
    29    45      0   0   0
    29    46      0   0   0
    30     2      1   0   0
    30    13      0   0   0
    30    14      0   0   0
    30    18      1   0   0
    30    19      1   0   0
    30    25      0   0   0
    30    26      0   0   0
    30    29      0   0   0
    30    31      0   0   0
    30    42      0   0   0
    30    46      0   0   0
    30    47      0   0   0
    31     3      1   0   0
    31    14      0   0   0
    31    15      0   0   0
    31    19      1   0   0
    31    20      1   0   0
    31    26      0   0   0
    31    27      0   0   0
    31    30      0   0   0
    31    32      0   0   0
    31    43      0   0   0
    31    47      0   0   0
    31    48      0   0   0
    32     4      1   0   0
    32    15      0   0   0
    32    16      0   0   0
    32    17      1   1   0
    32    20      1   0   0
    32    27      0   0   0
    32    28      0   0   0
    32    29      0   1   0
    32    31      0   0   0
    32    44      0   0   0
    32    45      0   1   0
    32    48      0   0   0
    33    17      0   0   0
    33    20      0  -1   0
    33    21      0   0   0
    33    34      0   0   0
    33    36      0  -1   0
    33    37      0   0   0
    33    38      0   0   0
    33    45     -1   0   0
    33    48     -1  -1   0
    33    49      0   0   0
    33    50      0   0   0
    33    61     -1   0   0
    34    17      0   0   0
    34    18      0   0   0
    34    22      0   0   0
    34    33      0   0   0
    34    35      0   0   0
    34    38      0   0   0
    34    39      0   0   0
    34    45     -1   0   0
    34    46     -1   0   0
    34    50      0   0   0
    34    51      0   0   0
    34    62     -1   0   0
    35    18      0   0   0
    35    19      0   0   0
    35    23      0   0   0
    35    34      0   0   0
    35    36      0   0   0
    35    39      0   0   0
    35    40      0   0   0
    35    46     -1   0   0
    35    47     -1   0   0
    35    51      0   0   0
    35    52      0   0   0
    35    63     -1   0   0
    36    19      0   0   0
    36    20      0   0   0
    36    24      0   0   0
    36    33      0   1   0
    36    35      0   0   0
    36    37      0   1   0
    36    40      0   0   0
    36    47     -1   0   0
    36    48     -1   0   0
    36    49      0   1   0
    36    52      0   0   0
    36    64     -1   0   0
    37    21      0   0   0
    37    24      0  -1   0
    37    25      0   0   0
    37    33      0   0   0
    37    36      0  -1   0
    37    38      0   0   0
    37    40      0  -1   0
    37    41      0   0   0
    37    42      0   0   0
    37    49      0   0   0
    37    53      0   0   0
    37    54      0   0   0
    38    21      0   0   0
    38    22      0   0   0
    38    26      0   0   0
    38    33      0   0   0
    38    34      0   0   0
    38    37      0   0   0
    38    39      0   0   0
    38    42      0   0   0
    38    43      0   0   0
    38    50      0   0   0
    38    54      0   0   0
    38    55      0   0   0
    39    22      0   0   0
    39    23      0   0   0
    39    27      0   0   0
    39    34      0   0   0
    39    35      0   0   0
    39    38      0   0   0
    39    40      0   0   0
    39    43      0   0   0
    39    44      0   0   0
    39    51      0   0   0
    39    55      0   0   0
    39    56      0   0   0
    40    23      0   0   0
    40    24      0   0   0
    40    28      0   0   0
    40    35      0   0   0
    40    36      0   0   0
    40    37      0   1   0
    40    39      0   0   0
    40    41      0   1   0
    40    44      0   0   0
    40    52      0   0   0
    40    53      0   1   0
    40    56      0   0   0
    41    25      0   0   0
    41    28      0  -1   0
    41    29      0   0   0
    41    37      0   0   0
    41    40      0  -1   0
    41    42      0   0   0
    41    44      0  -1   0
    41    45      0   0   0
    41    46      0   0   0
    41    53      0   0   0
    41    57      0   0   0
    41    58      0   0   0
    42    25      0   0   0
    42    26      0   0   0
    42    30      0   0   0
    42    37      0   0   0
    42    38      0   0   0
    42    41      0   0   0
    42    43      0   0   0
    42    46      0   0   0
    42    47      0   0   0
    42    54      0   0   0
    42    58      0   0   0
    42    59      0   0   0
    43    26      0   0   0
    43    27      0   0   0
    43    31      0   0   0
    43    38      0   0   0
    43    39      0   0   0
    43    42      0   0   0
    43    44      0   0   0
    43    47      0   0   0
    43    48      0   0   0
    43    55      0   0   0
    43    59      0   0   0
    43    60      0   0   0
    44    27      0   0   0
    44    28      0   0   0
    44    32      0   0   0
    44    39      0   0   0
    44    40      0   0   0
    44    41      0   1   0
    44    43      0   0   0
    44    45      0   1   0
    44    48      0   0   0
    44    56      0   0   0
    44    57      0   1   0
    44    60      0   0   0
    45    17      1   0   0
    45    29      0   0   0
    45    32      0  -1   0
    45    33      1   0   0
    45    34      1   0   0
    45    41      0   0   0
    45    44      0  -1   0
    45    46      0   0   0
    45    48      0  -1   0
    45    57      0   0   0
    45    61      0   0   0
    45    62      0   0   0
    46    18      1   0   0
    46    29      0   0   0
    46    30      0   0   0
    46    34      1   0   0
    46    35      1   0   0
    46    41      0   0   0
    46    42      0   0   0
    46    45      0   0   0
    46    47      0   0   0
    46    58      0   0   0
    46    62      0   0   0
    46    63      0   0   0
    47    19      1   0   0
    47    30      0   0   0
    47    31      0   0   0
    47    35      1   0   0
    47    36      1   0   0
    47    42      0   0   0
    47    43      0   0   0
    47    46      0   0   0
    47    48      0   0   0
    47    59      0   0   0
    47    63      0   0   0
    47    64      0   0   0
    48    20      1   0   0
    48    31      0   0   0
    48    32      0   0   0
    48    33      1   1   0
    48    36      1   0   0
    48    43      0   0   0
    48    44      0   0   0
    48    45      0   1   0
    48    47      0   0   0
    48    60      0   0   0
    48    61      0   1   0
    48    64      0   0   0
    49     1      0   0   1
    49     2      0   0   1
    49    13     -1   0   1
    49    33      0   0   0
    49    36      0  -1   0
    49    37      0   0   0
    49    50      0   0   0
    49    52      0  -1   0
    49    53      0   0   0
    49    54      0   0   0
    49    61     -1   0   0
    49    64     -1  -1   0
    50     2      0   0   1
    50     3      0   0   1
    50    14     -1   0   1
    50    33      0   0   0
    50    34      0   0   0
    50    38      0   0   0
    50    49      0   0   0
    50    51      0   0   0
    50    54      0   0   0
    50    55      0   0   0
    50    61     -1   0   0
    50    62     -1   0   0
    51     3      0   0   1
    51     4      0   0   1
    51    15     -1   0   1
    51    34      0   0   0
    51    35      0   0   0
    51    39      0   0   0
    51    50      0   0   0
    51    52      0   0   0
    51    55      0   0   0
    51    56      0   0   0
    51    62     -1   0   0
    51    63     -1   0   0
    52     1      0   1   1
    52     4      0   0   1
    52    16     -1   0   1
    52    35      0   0   0
    52    36      0   0   0
    52    40      0   0   0
    52    49      0   1   0
    52    51      0   0   0
    52    53      0   1   0
    52    56      0   0   0
    52    63     -1   0   0
    52    64     -1   0   0
    53     1      0   0   1
    53     5      0   0   1
    53     6      0   0   1
    53    37      0   0   0
    53    40      0  -1   0
    53    41      0   0   0
    53    49      0   0   0
    53    52      0  -1   0
    53    54      0   0   0
    53    56      0  -1   0
    53    57      0   0   0
    53    58      0   0   0
    54     2      0   0   1
    54     6      0   0   1
    54     7      0   0   1
    54    37      0   0   0
    54    38      0   0   0
    54    42      0   0   0
    54    49      0   0   0
    54    50      0   0   0
    54    53      0   0   0
    54    55      0   0   0
    54    58      0   0   0
    54    59      0   0   0
    55     3      0   0   1
    55     7      0   0   1
    55     8      0   0   1
    55    38      0   0   0
    55    39      0   0   0
    55    43      0   0   0
    55    50      0   0   0
    55    51      0   0   0
    55    54      0   0   0
    55    56      0   0   0
    55    59      0   0   0
    55    60      0   0   0
    56     4      0   0   1
    56     5      0   1   1
    56     8      0   0   1
    56    39      0   0   0
    56    40      0   0   0
    56    44      0   0   0
    56    51      0   0   0
    56    52      0   0   0
    56    53      0   1   0
    56    55      0   0   0
    56    57      0   1   0
    56    60      0   0   0
    57     5      0   0   1
    57     9      0   0   1
    57    10      0   0   1
    57    41      0   0   0
    57    44      0  -1   0
    57    45      0   0   0
    57    53      0   0   0
    57    56      0  -1   0
    57    58      0   0   0
    57    60      0  -1   0
    57    61      0   0   0
    57    62      0   0   0
    58     6      0   0   1
    58    10      0   0   1
    58    11      0   0   1
    58    41      0   0   0
    58    42      0   0   0
    58    46      0   0   0
    58    53      0   0   0
    58    54      0   0   0
    58    57      0   0   0
    58    59      0   0   0
    58    62      0   0   0
    58    63      0   0   0
    59     7      0   0   1
    59    11      0   0   1
    59    12      0   0   1
    59    42      0   0   0
    59    43      0   0   0
    59    47      0   0   0
    59    54      0   0   0
    59    55      0   0   0
    59    58      0   0   0
    59    60      0   0   0
    59    63      0   0   0
    59    64      0   0   0
    60     8      0   0   1
    60     9      0   1   1
    60    12      0   0   1
    60    43      0   0   0
    60    44      0   0   0
    60    48      0   0   0
    60    55      0   0   0
    60    56      0   0   0
    60    57      0   1   0
    60    59      0   0   0
    60    61      0   1   0
    60    64      0   0   0
    61     9      0   0   1
    61    13      0   0   1
    61    14      0   0   1
    61    33      1   0   0
    61    45      0   0   0
    61    48      0  -1   0
    61    49      1   0   0
    61    50      1   0   0
    61    57      0   0   0
    61    60      0  -1   0
    61    62      0   0   0
    61    64      0  -1   0
    62    10      0   0   1
    62    14      0   0   1
    62    15      0   0   1
    62    34      1   0   0
    62    45      0   0   0
    62    46      0   0   0
    62    50      1   0   0
    62    51      1   0   0
    62    57      0   0   0
    62    58      0   0   0
    62    61      0   0   0
    62    63      0   0   0
    63    11      0   0   1
    63    15      0   0   1
    63    16      0   0   1
    63    35      1   0   0
    63    46      0   0   0
    63    47      0   0   0
    63    51      1   0   0
    63    52      1   0   0
    63    58      0   0   0
    63    59      0   0   0
    63    62      0   0   0
    63    64      0   0   0
    64    12      0   0   1
    64    13      0   1   1
    64    16      0   0   1
    64    36      1   0   0
    64    47      0   0   0
    64    48      0   0   0
    64    49      1   1   0
    64    52      1   0   0
    64    59      0   0   0
    64    60      0   0   0
    64    61      0   1   0
    64    63      0   0   0
end nnkpts

