 
             +---------------------------------------------------+
             |                                                   |
             |                   WANNIER90                       |
             |                                                   |
             +---------------------------------------------------+
             |                                                   |
             |        Welcome to the Maximally-Localized         |
             |        Generalized Wannier Functions code         |
             |            http://www.wannier.org                 |
             |                                                   |
             |                                                   |
             |  Wannier90 Developer Group:                       |
             |    Giovanni Pizzi    (EPFL)                       |
             |    Valerio Vitale    (Cambridge)                  |
             |    David Vanderbilt  (Rutgers University)         |
             |    Nicola Marzari    (EPFL)                       |
             |    Ivo Souza         (Universidad del Pais Vasco) |
             |    Arash A. Mostofi  (Imperial College London)    |
             |    Jonathan R. Yates (University of Oxford)       |
             |                                                   |
             |  For the full list of Wannier90 3.x authors,      |
             |  please check the code documentation and the      |
             |  README on the GitHub page of the code            |
             |                                                   |
             |                                                   |
             |  Please cite                                      |
             |                                                   |
             |  [ref] "Wannier90 as a community code:            |
             |        new features and applications",            |
             |        G. Pizzi et al., J. Phys. Cond. Matt. 32,  |
             |        165902 (2020).                             |
             |        http://doi.org/10.1088/1361-648X/ab51ff    |
             |                                                   |
             |  in any publications arising from the use of      |
             |  this code. For the method please cite            |
             |                                                   |
             |  [ref] "Maximally Localized Generalised Wannier   |
             |         Functions for Composite Energy Bands"     |
             |         N. Marzari and D. Vanderbilt              |
             |         Phys. Rev. B 56 12847 (1997)              |
             |                                                   |
             |  [ref] "Maximally Localized Wannier Functions     |
             |         for Entangled Energy Bands"               |
             |         I. Souza, N. Marzari and D. Vanderbilt    |
             |         Phys. Rev. B 65 035109 (2001)             |
             |                                                   |
             |                                                   |
             | Copyright (c) 1996-2020                           |
             |        The Wannier90 Developer Group and          |
             |        individual contributors                    |
             |                                                   |
             |      Release: 3.1.0        5th March    2020      |
             |                                                   |
             | This program is free software; you can            |
             | redistribute it and/or modify it under the terms  |
             | of the GNU General Public License as published by |
             | the Free Software Foundation; either version 2 of |
             | the License, or (at your option) any later version|
             |                                                   |
             | This program is distributed in the hope that it   |
             | will be useful, but WITHOUT ANY WARRANTY; without |
             | even the implied warranty of MERCHANTABILITY or   |
             | FITNESS FOR A PARTICULAR PURPOSE. See the GNU     |
             | General Public License for more details.          |
             |                                                   |
             | You should have received a copy of the GNU General|
             | Public License along with this program; if not,   |
             | write to the Free Software Foundation, Inc.,      |
             | 675 Mass Ave, Cambridge, MA 02139, USA.           |
             |                                                   |
             +---------------------------------------------------+
             |    Execution started on 15Dec2020 at 12:34:13     |
             +---------------------------------------------------+
 
 ******************************************************************************
 * -> Using CODATA 2006 constant values                                       *
 *    (http://physics.nist.gov/cuu/Constants/index.html)                      *
 * -> Using Bohr value from CODATA                                            *
 ******************************************************************************
 

 Running in serial (with parallel executable)
 
                                    ------
                                    SYSTEM
                                    ------
 
                              Lattice Vectors (Ang)
                    a_1     1.434996   1.434996   1.434996
                    a_2    -1.434996   1.434996   1.434996
                    a_3    -1.434996  -1.434996   1.434996
 
                   Unit Cell Volume:      11.81986  (Ang^3)
 
                        Reciprocal-Space Vectors (Ang^-1)
                    b_1     2.189269   0.000000   2.189269
                    b_2    -2.189269   2.189269   0.000000
                    b_3     0.000000  -2.189269   2.189269
  
 *----------------------------------------------------------------------------*
 |   Site       Fractional Coordinate          Cartesian Coordinate (Ang)     |
 +----------------------------------------------------------------------------+
 | Fe   1   0.00000   0.00000   0.00000   |    0.00000   0.00000   0.00000    |
 *----------------------------------------------------------------------------*
  
  
 *-------------------------------- POSTW90 -----------------------------------*
 |  Number of Wannier Functions               :                18             |
 |  Number of electrons per state             :                 1             |
 |  Scissor shift applied to conduction bands :             0.000             |
 |  Number of valence bands                   :       not defined             |
 |  Fermi energy     :      11 steps from   11.628 to   13.628 eV             |
 |  Output verbosity (1=low, 5=high)          :                 1             |
 |  Timing Level (1=low, 5=high)              :                 1             |
 |  Optimisation (0=memory, 3=speed)          :                 3             |
 |  Length Unit                               :               Ang             |
 *----------------------------------------------------------------------------*
 *------------------------ Global Smearing Parameters ------------------------*
 |  Adaptive width smearing                   :                 T             |
 |  Adaptive smearing factor                  :             1.414             |
 |  Maximum allowed smearing width (eV)       :             1.000             |
 |  Smearing Function                                             Gaussian    |
 |  Global interpolation k-points defined     :                 F             |
 *----------------------------------------------------------------------------*
 *----------------------------------------------------------------------------*
 *--------------------------------- BERRY ------------------------------------*
 |  Compute Berry Phase related properties    :                 T             |
 |  Compute Optical Conductivity and JDOS     :                 F             |
 |  Compute Anomalous Hall Conductivity       :                 T             |
 |  Compute Shift Current                     :                 F             |
 |  Compute Orbital Magnetisation             :                 F             |
 |  Compute Spin Hall Conductivity            :                 F             |
 |  Lower frequency for optical responses     :             0.000             |
 |  Upper frequency for optical responses     :            19.039             |
 |  Step size for optical responses           :             0.010             |
 |  Upper eigenvalue for optical responses    :            30.667             |
 |  Using global smearing parameters                                          |
 |  Grid size                                 :    10 x  10 x  10             |
 |  Using an adaptive refinement mesh of size :                 5             |
 |  Threshold for adaptive refinement         :            10.000             |
 *----------------------------------------------------------------------------*
 Time to read parameters        0.006 (sec)

 *---------------------------------- K-MESH ----------------------------------*
 +----------------------------------------------------------------------------+
 |                    Distance to Nearest-Neighbour Shells                    |
 |                    ------------------------------------                    |
 |          Shell             Distance (Ang^-1)          Multiplicity         |
 |          -----             -----------------          ------------         |
 |             1                   1.548047                     12            |
 |             2                   2.189269                      6            |
 |             3                   2.681296                     24            |
 |             4                   3.096094                     12            |
 |             5                   3.461538                     24            |
 |             6                   3.791925                      8            |
 |             7                   4.095747                     48            |
 |             8                   4.378538                      6            |
 |             9                   4.644140                     36            |
 |            10                   4.895354                     24            |
 |            11                   5.134290                     24            |
 |            12                   5.362592                     24            |
 +----------------------------------------------------------------------------+
 | The b-vectors are chosen automatically                                     |
 | The following shells are used:   1                                         |
 +----------------------------------------------------------------------------+
 |                        Shell   # Nearest-Neighbours                        |
 |                        -----   --------------------                        |
 |                          1              12                                 |
 +----------------------------------------------------------------------------+
 | Completeness relation is fully satisfied [Eq. (B1), PRB 56, 12847 (1997)]  |
 +----------------------------------------------------------------------------+
 |                  b_k Vectors (Ang^-1) and Weights (Ang^2)                  |
 |                  ----------------------------------------                  |
 |            No.         b_k(x)      b_k(y)      b_k(z)        w_b           |
 |            ---        --------------------------------     --------        |
 |             1         0.000000   -1.094634    1.094634     0.104321        |
 |             2        -1.094634    1.094634    0.000000     0.104321        |
 |             3        -1.094634    0.000000    1.094634     0.104321        |
 |             4         1.094634    0.000000    1.094634     0.104321        |
 |             5         0.000000    1.094634    1.094634     0.104321        |
 |             6         0.000000    1.094634   -1.094634     0.104321        |
 |             7         1.094634    1.094634    0.000000     0.104321        |
 |             8         1.094634   -1.094634    0.000000     0.104321        |
 |             9         1.094634    0.000000   -1.094634     0.104321        |
 |            10        -1.094634    0.000000   -1.094634     0.104321        |
 |            11        -1.094634   -1.094634    0.000000     0.104321        |
 |            12         0.000000   -1.094634   -1.094634     0.104321        |
 +----------------------------------------------------------------------------+
 |                           b_k Directions (Ang^-1)                          |
 |                           -----------------------                          |
 |            No.           x           y           z                         |
 |            ---        --------------------------------                     |
 |             1         0.000000   -1.094634    1.094634                     |
 |             2        -1.094634    1.094634    0.000000                     |
 |             3        -1.094634    0.000000    1.094634                     |
 |             4         1.094634    0.000000    1.094634                     |
 |             5         0.000000    1.094634    1.094634                     |
 |             6         1.094634    1.094634    0.000000                     |
 +----------------------------------------------------------------------------+
  
 Time to get kmesh              0.023 (sec)
 Reading restart information from file Fe.chk :
 written on  9Dec2017 at 21:01:42 ... done


 Time to read and process       0.092 (sec)

 Reading overlaps from Fe.mmn in get_AA_R   :  Created on 27Mar2017 at 18:44:12


 Properties calculated in module  b e r r y
 ------------------------------------------

   * Anomalous Hall conductivity
  
 Regular interpolation grid: 10 10 10
   Adaptive refinement grid: 5 5 5
       Refinement threshold: Berry curvature > 10.00 Ang^2

 ---------------------------------
 Output data files related to AHC:
 ---------------------------------

   * Fe-ahc-fermiscan.dat                                                                                                    

 Fermi energy (ev):   11.6279
  Points triggering refinement:   60( 6.00%)

 AHC (S/cm)       x          y          z
 ==========    50.8452   -50.6195   157.9628


 Fermi energy (ev):   11.8279
  Points triggering refinement:   12( 1.20%)

 AHC (S/cm)       x          y          z
 ==========    20.5415   -20.5783   568.0110


 Fermi energy (ev):   12.0279
  Points triggering refinement:   32( 3.20%)

 AHC (S/cm)       x          y          z
 ==========    73.6846   -73.7013   533.9092


 Fermi energy (ev):   12.2279
  Points triggering refinement:   24( 2.40%)

 AHC (S/cm)       x          y          z
 ==========    32.3327   -32.3508   210.6353


 Fermi energy (ev):   12.4279
  Points triggering refinement:    4( 0.40%)

 AHC (S/cm)       x          y          z
 ==========     1.2920    -1.2904    11.3236


 Fermi energy (ev):   12.6279
  Points triggering refinement:   58( 5.80%)

 AHC (S/cm)       x          y          z
 ==========    41.9270   -41.9140   722.2670


 Fermi energy (ev):   12.8279
  Points triggering refinement:   88( 8.80%)

 AHC (S/cm)       x          y          z
 ==========    35.7399   -35.7987  2804.9568


 Fermi energy (ev):   13.0279
  Points triggering refinement:    8( 0.80%)

 AHC (S/cm)       x          y          z
 ==========    -5.5539     5.5613   124.5502


 Fermi energy (ev):   13.2279
  Points triggering refinement:    2( 0.20%)

 AHC (S/cm)       x          y          z
 ==========     4.1132    -4.1050   142.0461


 Fermi energy (ev):   13.4279
  Points triggering refinement:    8( 0.80%)

 AHC (S/cm)       x          y          z
 ==========    -1.3633     1.4046   -10.1043


 Fermi energy (ev):   13.6279
  Points triggering refinement:    0( 0.00%)

 AHC (S/cm)       x          y          z
 ==========     0.0011     0.0067    90.2626


 Total Execution Time          53.995 (sec)

 *===========================================================================*
 |                             TIMING INFORMATION                            |
 *===========================================================================*
 |    Tag                                                Ncalls      Time (s)|
 |---------------------------------------------------------------------------|
 |kmesh: get                                        :         1         0.023|
 *---------------------------------------------------------------------------*
 

 All done: postw90 exiting
 
             +---------------------------------------------------+
             |                                                   |
             |                   WANNIER90                       |
             |                                                   |
             +---------------------------------------------------+
             |                                                   |
             |        Welcome to the Maximally-Localized         |
             |        Generalized Wannier Functions code         |
             |            http://www.wannier.org                 |
             |                                                   |
             |                                                   |
             |  Wannier90 Developer Group:                       |
             |    Giovanni Pizzi    (EPFL)                       |
             |    Valerio Vitale    (Cambridge)                  |
             |    David Vanderbilt  (Rutgers University)         |
             |    Nicola Marzari    (EPFL)                       |
             |    Ivo Souza         (Universidad del Pais Vasco) |
             |    Arash A. Mostofi  (Imperial College London)    |
             |    Jonathan R. Yates (University of Oxford)       |
             |                                                   |
             |  For the full list of Wannier90 3.x authors,      |
             |  please check the code documentation and the      |
             |  README on the GitHub page of the code            |
             |                                                   |
             |                                                   |
             |  Please cite                                      |
             |                                                   |
             |  [ref] "Wannier90 as a community code:            |
             |        new features and applications",            |
             |        G. Pizzi et al., J. Phys. Cond. Matt. 32,  |
             |        165902 (2020).                             |
             |        http://doi.org/10.1088/1361-648X/ab51ff    |
             |                                                   |
             |  in any publications arising from the use of      |
             |  this code. For the method please cite            |
             |                                                   |
             |  [ref] "Maximally Localized Generalised Wannier   |
             |         Functions for Composite Energy Bands"     |
             |         N. Marzari and D. Vanderbilt              |
             |         Phys. Rev. B 56 12847 (1997)              |
             |                                                   |
             |  [ref] "Maximally Localized Wannier Functions     |
             |         for Entangled Energy Bands"               |
             |         I. Souza, N. Marzari and D. Vanderbilt    |
             |         Phys. Rev. B 65 035109 (2001)             |
             |                                                   |
             |                                                   |
             | Copyright (c) 1996-2020                           |
             |        The Wannier90 Developer Group and          |
             |        individual contributors                    |
             |                                                   |
             |      Release: 3.1.0        5th March    2020      |
             |                                                   |
             | This program is free software; you can            |
             | redistribute it and/or modify it under the terms  |
             | of the GNU General Public License as published by |
             | the Free Software Foundation; either version 2 of |
             | the License, or (at your option) any later version|
             |                                                   |
             | This program is distributed in the hope that it   |
             | will be useful, but WITHOUT ANY WARRANTY; without |
             | even the implied warranty of MERCHANTABILITY or   |
             | FITNESS FOR A PARTICULAR PURPOSE. See the GNU     |
             | General Public License for more details.          |
             |                                                   |
             | You should have received a copy of the GNU General|
             | Public License along with this program; if not,   |
             | write to the Free Software Foundation, Inc.,      |
             | 675 Mass Ave, Cambridge, MA 02139, USA.           |
             |                                                   |
             +---------------------------------------------------+
             |    Execution started on 15Dec2020 at 12:40:10     |
             +---------------------------------------------------+
 
 ******************************************************************************
 * -> Using CODATA 2006 constant values                                       *
 *    (http://physics.nist.gov/cuu/Constants/index.html)                      *
 * -> Using Bohr value from CODATA                                            *
 ******************************************************************************
 

 Running in parallel on   4 CPUs

 
                                    ------
                                    SYSTEM
                                    ------
 
                              Lattice Vectors (Ang)
                    a_1     1.434996   1.434996   1.434996
                    a_2    -1.434996   1.434996   1.434996
                    a_3    -1.434996  -1.434996   1.434996
 
                   Unit Cell Volume:      11.81986  (Ang^3)
 
                        Reciprocal-Space Vectors (Ang^-1)
                    b_1     2.189269   0.000000   2.189269
                    b_2    -2.189269   2.189269   0.000000
                    b_3     0.000000  -2.189269   2.189269
  
 *----------------------------------------------------------------------------*
 |   Site       Fractional Coordinate          Cartesian Coordinate (Ang)     |
 +----------------------------------------------------------------------------+
 | Fe   1   0.00000   0.00000   0.00000   |    0.00000   0.00000   0.00000    |
 *----------------------------------------------------------------------------*
  
  
 *-------------------------------- POSTW90 -----------------------------------*
 |  Number of Wannier Functions               :                18             |
 |  Number of electrons per state             :                 1             |
 |  Scissor shift applied to conduction bands :             0.000             |
 |  Number of valence bands                   :       not defined             |
 |  Fermi energy     :      11 steps from   11.628 to   13.628 eV             |
 |  Output verbosity (1=low, 5=high)          :                 1             |
 |  Timing Level (1=low, 5=high)              :                 1             |
 |  Optimisation (0=memory, 3=speed)          :                 3             |
 |  Length Unit                               :               Ang             |
 *----------------------------------------------------------------------------*
 *------------------------ Global Smearing Parameters ------------------------*
 |  Adaptive width smearing                   :                 T             |
 |  Adaptive smearing factor                  :             1.414             |
 |  Maximum allowed smearing width (eV)       :             1.000             |
 |  Smearing Function                                             Gaussian    |
 |  Global interpolation k-points defined     :                 F             |
 *----------------------------------------------------------------------------*
 *----------------------------------------------------------------------------*
 *--------------------------------- BERRY ------------------------------------*
 |  Compute Berry Phase related properties    :                 T             |
 |  Compute Optical Conductivity and JDOS     :                 F             |
 |  Compute Anomalous Hall Conductivity       :                 T             |
 |  Compute Shift Current                     :                 F             |
 |  Compute Orbital Magnetisation             :                 F             |
 |  Compute Spin Hall Conductivity            :                 F             |
 |  Lower frequency for optical responses     :             0.000             |
 |  Upper frequency for optical responses     :            19.039             |
 |  Step size for optical responses           :             0.010             |
 |  Upper eigenvalue for optical responses    :            30.667             |
 |  Using global smearing parameters                                          |
 |  Grid size                                 :    10 x  10 x  10             |
 |  Using an adaptive refinement mesh of size :                 5             |
 |  Threshold for adaptive refinement         :            10.000             |
 *----------------------------------------------------------------------------*
 Time to read parameters        0.004 (sec)

 *---------------------------------- K-MESH ----------------------------------*
 +----------------------------------------------------------------------------+
 |                    Distance to Nearest-Neighbour Shells                    |
 |                    ------------------------------------                    |
 |          Shell             Distance (Ang^-1)          Multiplicity         |
 |          -----             -----------------          ------------         |
 |             1                   1.548047                     12            |
 |             2                   2.189269                      6            |
 |             3                   2.681296                     24            |
 |             4                   3.096094                     12            |
 |             5                   3.461538                     24            |
 |             6                   3.791925                      8            |
 |             7                   4.095747                     48            |
 |             8                   4.378538                      6            |
 |             9                   4.644140                     36            |
 |            10                   4.895354                     24            |
 |            11                   5.134290                     24            |
 |            12                   5.362592                     24            |
 +----------------------------------------------------------------------------+
 | The b-vectors are chosen automatically                                     |
 | The following shells are used:   1                                         |
 +----------------------------------------------------------------------------+
 |                        Shell   # Nearest-Neighbours                        |
 |                        -----   --------------------                        |
 |                          1              12                                 |
 +----------------------------------------------------------------------------+
 | Completeness relation is fully satisfied [Eq. (B1), PRB 56, 12847 (1997)]  |
 +----------------------------------------------------------------------------+
 |                  b_k Vectors (Ang^-1) and Weights (Ang^2)                  |
 |                  ----------------------------------------                  |
 |            No.         b_k(x)      b_k(y)      b_k(z)        w_b           |
 |            ---        --------------------------------     --------        |
 |             1         0.000000   -1.094634    1.094634     0.104321        |
 |             2        -1.094634    1.094634    0.000000     0.104321        |
 |             3        -1.094634    0.000000    1.094634     0.104321        |
 |             4         1.094634    0.000000    1.094634     0.104321        |
 |             5         0.000000    1.094634    1.094634     0.104321        |
 |             6         0.000000    1.094634   -1.094634     0.104321        |
 |             7         1.094634    1.094634    0.000000     0.104321        |
 |             8         1.094634   -1.094634    0.000000     0.104321        |
 |             9         1.094634    0.000000   -1.094634     0.104321        |
 |            10        -1.094634    0.000000   -1.094634     0.104321        |
 |            11        -1.094634   -1.094634    0.000000     0.104321        |
 |            12         0.000000   -1.094634   -1.094634     0.104321        |
 +----------------------------------------------------------------------------+
 |                           b_k Directions (Ang^-1)                          |
 |                           -----------------------                          |
 |            No.           x           y           z                         |
 |            ---        --------------------------------                     |
 |             1         0.000000   -1.094634    1.094634                     |
 |             2        -1.094634    1.094634    0.000000                     |
 |             3        -1.094634    0.000000    1.094634                     |
 |             4         1.094634    0.000000    1.094634                     |
 |             5         0.000000    1.094634    1.094634                     |
 |             6         1.094634    1.094634    0.000000                     |
 +----------------------------------------------------------------------------+
  
 Time to get kmesh              0.024 (sec)
 Reading restart information from file Fe.chk :
 written on  9Dec2017 at 21:01:42 ... done


 Time to read and process       0.096 (sec)

 Reading overlaps from Fe.mmn in get_AA_R   :  Created on 27Mar2017 at 18:44:12


 Properties calculated in module  b e r r y
 ------------------------------------------

   * Anomalous Hall conductivity
  
 Regular interpolation grid: 10 10 10
   Adaptive refinement grid: 5 5 5
       Refinement threshold: Berry curvature > 10.00 Ang^2

 ---------------------------------
 Output data files related to AHC:
 ---------------------------------

   * Fe-ahc-fermiscan.dat                                                                                                    

 Fermi energy (ev):   11.6279
  Points triggering refinement:   60( 6.00%)

 AHC (S/cm)       x          y          z
 ==========    50.8452   -50.6195   157.9628


 Fermi energy (ev):   11.8279
  Points triggering refinement:   12( 1.20%)

 AHC (S/cm)       x          y          z
 ==========    20.5415   -20.5783   568.0110


 Fermi energy (ev):   12.0279
  Points triggering refinement:   32( 3.20%)

 AHC (S/cm)       x          y          z
 ==========    73.6846   -73.7013   533.9092


 Fermi energy (ev):   12.2279
  Points triggering refinement:   24( 2.40%)

 AHC (S/cm)       x          y          z
 ==========    32.3327   -32.3508   210.6353


 Fermi energy (ev):   12.4279
  Points triggering refinement:    4( 0.40%)

 AHC (S/cm)       x          y          z
 ==========     1.2920    -1.2904    11.3236


 Fermi energy (ev):   12.6279
  Points triggering refinement:   58( 5.80%)

 AHC (S/cm)       x          y          z
 ==========    41.9270   -41.9140   722.2670


 Fermi energy (ev):   12.8279
  Points triggering refinement:   88( 8.80%)

 AHC (S/cm)       x          y          z
 ==========    35.7399   -35.7987  2804.9568


 Fermi energy (ev):   13.0279
  Points triggering refinement:    8( 0.80%)

 AHC (S/cm)       x          y          z
 ==========    -5.5539     5.5613   124.5502


 Fermi energy (ev):   13.2279
  Points triggering refinement:    2( 0.20%)

 AHC (S/cm)       x          y          z
 ==========     4.1132    -4.1050   142.0461


 Fermi energy (ev):   13.4279
  Points triggering refinement:    8( 0.80%)

 AHC (S/cm)       x          y          z
 ==========    -1.3633     1.4046   -10.1043


 Fermi energy (ev):   13.6279
  Points triggering refinement:    0( 0.00%)

 AHC (S/cm)       x          y          z
 ==========     0.0011     0.0067    90.2626


 Total Execution Time          19.900 (sec)

 *===========================================================================*
 |                             TIMING INFORMATION                            |
 *===========================================================================*
 |    Tag                                                Ncalls      Time (s)|
 |---------------------------------------------------------------------------|
 |kmesh: get                                        :         1         0.024|
 *---------------------------------------------------------------------------*
 

 All done: postw90 exiting
 
             +---------------------------------------------------+
             |                                                   |
             |                   WANNIER90                       |
             |                                                   |
             +---------------------------------------------------+
             |                                                   |
             |        Welcome to the Maximally-Localized         |
             |        Generalized Wannier Functions code         |
             |            http://www.wannier.org                 |
             |                                                   |
             |                                                   |
             |  Wannier90 Developer Group:                       |
             |    Giovanni Pizzi    (EPFL)                       |
             |    Valerio Vitale    (Cambridge)                  |
             |    David Vanderbilt  (Rutgers University)         |
             |    Nicola Marzari    (EPFL)                       |
             |    Ivo Souza         (Universidad del Pais Vasco) |
             |    Arash A. Mostofi  (Imperial College London)    |
             |    Jonathan R. Yates (University of Oxford)       |
             |                                                   |
             |  For the full list of Wannier90 3.x authors,      |
             |  please check the code documentation and the      |
             |  README on the GitHub page of the code            |
             |                                                   |
             |                                                   |
             |  Please cite                                      |
             |                                                   |
             |  [ref] "Wannier90 as a community code:            |
             |        new features and applications",            |
             |        G. Pizzi et al., J. Phys. Cond. Matt. 32,  |
             |        165902 (2020).                             |
             |        http://doi.org/10.1088/1361-648X/ab51ff    |
             |                                                   |
             |  in any publications arising from the use of      |
             |  this code. For the method please cite            |
             |                                                   |
             |  [ref] "Maximally Localized Generalised Wannier   |
             |         Functions for Composite Energy Bands"     |
             |         N. Marzari and D. Vanderbilt              |
             |         Phys. Rev. B 56 12847 (1997)              |
             |                                                   |
             |  [ref] "Maximally Localized Wannier Functions     |
             |         for Entangled Energy Bands"               |
             |         I. Souza, N. Marzari and D. Vanderbilt    |
             |         Phys. Rev. B 65 035109 (2001)             |
             |                                                   |
             |                                                   |
             | Copyright (c) 1996-2020                           |
             |        The Wannier90 Developer Group and          |
             |        individual contributors                    |
             |                                                   |
             |      Release: 3.1.0        5th March    2020      |
             |                                                   |
             | This program is free software; you can            |
             | redistribute it and/or modify it under the terms  |
             | of the GNU General Public License as published by |
             | the Free Software Foundation; either version 2 of |
             | the License, or (at your option) any later version|
             |                                                   |
             | This program is distributed in the hope that it   |
             | will be useful, but WITHOUT ANY WARRANTY; without |
             | even the implied warranty of MERCHANTABILITY or   |
             | FITNESS FOR A PARTICULAR PURPOSE. See the GNU     |
             | General Public License for more details.          |
             |                                                   |
             | You should have received a copy of the GNU General|
             | Public License along with this program; if not,   |
             | write to the Free Software Foundation, Inc.,      |
             | 675 Mass Ave, Cambridge, MA 02139, USA.           |
             |                                                   |
             +---------------------------------------------------+
             |    Execution started on 17Dec2020 at 18:36:46     |
             +---------------------------------------------------+
 
 ******************************************************************************
 * -> Using CODATA 2006 constant values                                       *
 *    (http://physics.nist.gov/cuu/Constants/index.html)                      *
 * -> Using Bohr value from CODATA                                            *
 ******************************************************************************
 

 Running in serial (with parallel executable)
 
                                    ------
                                    SYSTEM
                                    ------
 
                              Lattice Vectors (Ang)
                    a_1     1.434996   1.434996   1.434996
                    a_2    -1.434996   1.434996   1.434996
                    a_3    -1.434996  -1.434996   1.434996
 
                   Unit Cell Volume:      11.81986  (Ang^3)
 
                        Reciprocal-Space Vectors (Ang^-1)
                    b_1     2.189269   0.000000   2.189269
                    b_2    -2.189269   2.189269   0.000000
                    b_3     0.000000  -2.189269   2.189269
  
 *----------------------------------------------------------------------------*
 |   Site       Fractional Coordinate          Cartesian Coordinate (Ang)     |
 +----------------------------------------------------------------------------+
 | Fe   1   0.00000   0.00000   0.00000   |    0.00000   0.00000   0.00000    |
 *----------------------------------------------------------------------------*
  
  
 *-------------------------------- POSTW90 -----------------------------------*
 |  Number of Wannier Functions               :                18             |
 |  Number of electrons per state             :                 1             |
 |  Scissor shift applied to conduction bands :             0.000             |
 |  Number of valence bands                   :       not defined             |
 |  Fermi energy     :      11 steps from   11.628 to   13.628 eV             |
 |  Output verbosity (1=low, 5=high)          :                 1             |
 |  Timing Level (1=low, 5=high)              :                 1             |
 |  Optimisation (0=memory, 3=speed)          :                 3             |
 |  Length Unit                               :               Ang             |
 *----------------------------------------------------------------------------*
 *------------------------ Global Smearing Parameters ------------------------*
 |  Adaptive width smearing                   :                 T             |
 |  Adaptive smearing factor                  :             1.414             |
 |  Maximum allowed smearing width (eV)       :             1.000             |
 |  Smearing Function                                             Gaussian    |
 |  Global interpolation k-points defined     :                 F             |
 *----------------------------------------------------------------------------*
 *----------------------------------------------------------------------------*
 *--------------------------------- BERRY ------------------------------------*
 |  Compute Berry Phase related properties    :                 T             |
 |  Compute Optical Conductivity and JDOS     :                 F             |
 |  Compute Anomalous Hall Conductivity       :                 T             |
 |  Compute Shift Current                     :                 F             |
 |  Compute Orbital Magnetisation             :                 F             |
 |  Compute Spin Hall Conductivity            :                 F             |
 |  Lower frequency for optical responses     :             0.000             |
 |  Upper frequency for optical responses     :            19.039             |
 |  Step size for optical responses           :             0.010             |
 |  Upper eigenvalue for optical responses    :            30.667             |
 |  Using global smearing parameters                                          |
 |  Grid size                                 :    10 x  10 x  10             |
 |  Using an adaptive refinement mesh of size :                 5             |
 |  Threshold for adaptive refinement         :            10.000             |
 *----------------------------------------------------------------------------*
 Time to read parameters        0.006 (sec)

 *---------------------------------- K-MESH ----------------------------------*
 +----------------------------------------------------------------------------+
 |                    Distance to Nearest-Neighbour Shells                    |
 |                    ------------------------------------                    |
 |          Shell             Distance (Ang^-1)          Multiplicity         |
 |          -----             -----------------          ------------         |
 |             1                   1.548047                     12            |
 |             2                   2.189269                      6            |
 |             3                   2.681296                     24            |
 |             4                   3.096094                     12            |
 |             5                   3.461538                     24            |
 |             6                   3.791925                      8            |
 |             7                   4.095747                     48            |
 |             8                   4.378538                      6            |
 |             9                   4.644140                     36            |
 |            10                   4.895354                     24            |
 |            11                   5.134290                     24            |
 |            12                   5.362592                     24            |
 +----------------------------------------------------------------------------+
 | The b-vectors are chosen automatically                                     |
 | The following shells are used:   1                                         |
 +----------------------------------------------------------------------------+
 |                        Shell   # Nearest-Neighbours                        |
 |                        -----   --------------------                        |
 |                          1              12                                 |
 +----------------------------------------------------------------------------+
 | Completeness relation is fully satisfied [Eq. (B1), PRB 56, 12847 (1997)]  |
 +----------------------------------------------------------------------------+
 |                  b_k Vectors (Ang^-1) and Weights (Ang^2)                  |
 |                  ----------------------------------------                  |
 |            No.         b_k(x)      b_k(y)      b_k(z)        w_b           |
 |            ---        --------------------------------     --------        |
 |             1         0.000000   -1.094634    1.094634     0.104321        |
 |             2        -1.094634    1.094634    0.000000     0.104321        |
 |             3        -1.094634    0.000000    1.094634     0.104321        |
 |             4         1.094634    0.000000    1.094634     0.104321        |
 |             5         0.000000    1.094634    1.094634     0.104321        |
 |             6         0.000000    1.094634   -1.094634     0.104321        |
 |             7         1.094634    1.094634    0.000000     0.104321        |
 |             8         1.094634   -1.094634    0.000000     0.104321        |
 |             9         1.094634    0.000000   -1.094634     0.104321        |
 |            10        -1.094634    0.000000   -1.094634     0.104321        |
 |            11        -1.094634   -1.094634    0.000000     0.104321        |
 |            12         0.000000   -1.094634   -1.094634     0.104321        |
 +----------------------------------------------------------------------------+
 |                           b_k Directions (Ang^-1)                          |
 |                           -----------------------                          |
 |            No.           x           y           z                         |
 |            ---        --------------------------------                     |
 |             1         0.000000   -1.094634    1.094634                     |
 |             2        -1.094634    1.094634    0.000000                     |
 |             3        -1.094634    0.000000    1.094634                     |
 |             4         1.094634    0.000000    1.094634                     |
 |             5         0.000000    1.094634    1.094634                     |
 |             6         1.094634    1.094634    0.000000                     |
 +----------------------------------------------------------------------------+
  
 Time to get kmesh              0.023 (sec)
 Reading restart information from file Fe.chk :
 written on  9Dec2017 at 21:01:42 ... done


 Time to read and process       0.094 (sec)

 Reading overlaps from Fe.mmn in get_AA_R   :  Created on 27Mar2017 at 18:44:12


 Properties calculated in module  b e r r y
 ------------------------------------------

   * Anomalous Hall conductivity
  
 Regular interpolation grid: 10 10 10
   Adaptive refinement grid: 5 5 5
       Refinement threshold: Berry curvature > 10.00 Ang^2

 ---------------------------------
 Output data files related to AHC:
 ---------------------------------

   * Fe-ahc-fermiscan.dat                                                                                                    

 Fermi energy (ev):   11.6279
  Points triggering refinement:   60( 6.00%)

 AHC (S/cm)       x          y          z
 ==========    50.8452   -50.6195   157.9628


 Fermi energy (ev):   11.8279
  Points triggering refinement:   12( 1.20%)

 AHC (S/cm)       x          y          z
 ==========    20.5415   -20.5783   568.0110


 Fermi energy (ev):   12.0279
  Points triggering refinement:   32( 3.20%)

 AHC (S/cm)       x          y          z
 ==========    73.6846   -73.7013   533.9092


 Fermi energy (ev):   12.2279
  Points triggering refinement:   24( 2.40%)

 AHC (S/cm)       x          y          z
 ==========    32.3327   -32.3508   210.6353


 Fermi energy (ev):   12.4279
  Points triggering refinement:    4( 0.40%)

 AHC (S/cm)       x          y          z
 ==========     1.2920    -1.2904    11.3236


 Fermi energy (ev):   12.6279
  Points triggering refinement:   58( 5.80%)

 AHC (S/cm)       x          y          z
 ==========    41.9270   -41.9140   722.2670


 Fermi energy (ev):   12.8279
  Points triggering refinement:   88( 8.80%)

 AHC (S/cm)       x          y          z
 ==========    35.7399   -35.7987  2804.9568


 Fermi energy (ev):   13.0279
  Points triggering refinement:    8( 0.80%)

 AHC (S/cm)       x          y          z
 ==========    -5.5539     5.5613   124.5502


 Fermi energy (ev):   13.2279
  Points triggering refinement:    2( 0.20%)

 AHC (S/cm)       x          y          z
 ==========     4.1132    -4.1050   142.0461


 Fermi energy (ev):   13.4279
  Points triggering refinement:    8( 0.80%)

 AHC (S/cm)       x          y          z
 ==========    -1.3633     1.4046   -10.1043


 Fermi energy (ev):   13.6279
  Points triggering refinement:    0( 0.00%)

 AHC (S/cm)       x          y          z
 ==========     0.0011     0.0067    90.2626


 Total Execution Time          54.108 (sec)

 *===========================================================================*
 |                             TIMING INFORMATION                            |
 *===========================================================================*
 |    Tag                                                Ncalls      Time (s)|
 |---------------------------------------------------------------------------|
 |kmesh: get                                        :         1         0.023|
 *---------------------------------------------------------------------------*
 

 All done: postw90 exiting
 
             +---------------------------------------------------+
             |                                                   |
             |                   WANNIER90                       |
             |                                                   |
             +---------------------------------------------------+
             |                                                   |
             |        Welcome to the Maximally-Localized         |
             |        Generalized Wannier Functions code         |
             |            http://www.wannier.org                 |
             |                                                   |
             |                                                   |
             |  Wannier90 Developer Group:                       |
             |    Giovanni Pizzi    (EPFL)                       |
             |    Valerio Vitale    (Cambridge)                  |
             |    David Vanderbilt  (Rutgers University)         |
             |    Nicola Marzari    (EPFL)                       |
             |    Ivo Souza         (Universidad del Pais Vasco) |
             |    Arash A. Mostofi  (Imperial College London)    |
             |    Jonathan R. Yates (University of Oxford)       |
             |                                                   |
             |  For the full list of Wannier90 3.x authors,      |
             |  please check the code documentation and the      |
             |  README on the GitHub page of the code            |
             |                                                   |
             |                                                   |
             |  Please cite                                      |
             |                                                   |
             |  [ref] "Wannier90 as a community code:            |
             |        new features and applications",            |
             |        G. Pizzi et al., J. Phys. Cond. Matt. 32,  |
             |        165902 (2020).                             |
             |        http://doi.org/10.1088/1361-648X/ab51ff    |
             |                                                   |
             |  in any publications arising from the use of      |
             |  this code. For the method please cite            |
             |                                                   |
             |  [ref] "Maximally Localized Generalised Wannier   |
             |         Functions for Composite Energy Bands"     |
             |         N. Marzari and D. Vanderbilt              |
             |         Phys. Rev. B 56 12847 (1997)              |
             |                                                   |
             |  [ref] "Maximally Localized Wannier Functions     |
             |         for Entangled Energy Bands"               |
             |         I. Souza, N. Marzari and D. Vanderbilt    |
             |         Phys. Rev. B 65 035109 (2001)             |
             |                                                   |
             |                                                   |
             | Copyright (c) 1996-2020                           |
             |        The Wannier90 Developer Group and          |
             |        individual contributors                    |
             |                                                   |
             |      Release: 3.1.0        5th March    2020      |
             |                                                   |
             | This program is free software; you can            |
             | redistribute it and/or modify it under the terms  |
             | of the GNU General Public License as published by |
             | the Free Software Foundation; either version 2 of |
             | the License, or (at your option) any later version|
             |                                                   |
             | This program is distributed in the hope that it   |
             | will be useful, but WITHOUT ANY WARRANTY; without |
             | even the implied warranty of MERCHANTABILITY or   |
             | FITNESS FOR A PARTICULAR PURPOSE. See the GNU     |
             | General Public License for more details.          |
             |                                                   |
             | You should have received a copy of the GNU General|
             | Public License along with this program; if not,   |
             | write to the Free Software Foundation, Inc.,      |
             | 675 Mass Ave, Cambridge, MA 02139, USA.           |
             |                                                   |
             +---------------------------------------------------+
             |    Execution started on 17Dec2020 at 18:42:59     |
             +---------------------------------------------------+
 
 ******************************************************************************
 * -> Using CODATA 2006 constant values                                       *
 *    (http://physics.nist.gov/cuu/Constants/index.html)                      *
 * -> Using Bohr value from CODATA                                            *
 ******************************************************************************
 

 Running in parallel on   4 CPUs

 
                                    ------
                                    SYSTEM
                                    ------
 
                              Lattice Vectors (Ang)
                    a_1     1.434996   1.434996   1.434996
                    a_2    -1.434996   1.434996   1.434996
                    a_3    -1.434996  -1.434996   1.434996
 
                   Unit Cell Volume:      11.81986  (Ang^3)
 
                        Reciprocal-Space Vectors (Ang^-1)
                    b_1     2.189269   0.000000   2.189269
                    b_2    -2.189269   2.189269   0.000000
                    b_3     0.000000  -2.189269   2.189269
  
 *----------------------------------------------------------------------------*
 |   Site       Fractional Coordinate          Cartesian Coordinate (Ang)     |
 +----------------------------------------------------------------------------+
 | Fe   1   0.00000   0.00000   0.00000   |    0.00000   0.00000   0.00000    |
 *----------------------------------------------------------------------------*
  
  
 *-------------------------------- POSTW90 -----------------------------------*
 |  Number of Wannier Functions               :                18             |
 |  Number of electrons per state             :                 1             |
 |  Scissor shift applied to conduction bands :             0.000             |
 |  Number of valence bands                   :       not defined             |
 |  Fermi energy     :      11 steps from   11.628 to   13.628 eV             |
 |  Output verbosity (1=low, 5=high)          :                 1             |
 |  Timing Level (1=low, 5=high)              :                 1             |
 |  Optimisation (0=memory, 3=speed)          :                 3             |
 |  Length Unit                               :               Ang             |
 *----------------------------------------------------------------------------*
 *------------------------ Global Smearing Parameters ------------------------*
 |  Adaptive width smearing                   :                 T             |
 |  Adaptive smearing factor                  :             1.414             |
 |  Maximum allowed smearing width (eV)       :             1.000             |
 |  Smearing Function                                             Gaussian    |
 |  Global interpolation k-points defined     :                 F             |
 *----------------------------------------------------------------------------*
 *----------------------------------------------------------------------------*
 *--------------------------------- BERRY ------------------------------------*
 |  Compute Berry Phase related properties    :                 T             |
 |  Compute Optical Conductivity and JDOS     :                 F             |
 |  Compute Anomalous Hall Conductivity       :                 T             |
 |  Compute Shift Current                     :                 F             |
 |  Compute Orbital Magnetisation             :                 F             |
 |  Compute Spin Hall Conductivity            :                 F             |
 |  Lower frequency for optical responses     :             0.000             |
 |  Upper frequency for optical responses     :            19.039             |
 |  Step size for optical responses           :             0.010             |
 |  Upper eigenvalue for optical responses    :            30.667             |
 |  Using global smearing parameters                                          |
 |  Grid size                                 :    10 x  10 x  10             |
 |  Using an adaptive refinement mesh of size :                 5             |
 |  Threshold for adaptive refinement         :            10.000             |
 *----------------------------------------------------------------------------*
 Time to read parameters        0.004 (sec)

 *---------------------------------- K-MESH ----------------------------------*
 +----------------------------------------------------------------------------+
 |                    Distance to Nearest-Neighbour Shells                    |
 |                    ------------------------------------                    |
 |          Shell             Distance (Ang^-1)          Multiplicity         |
 |          -----             -----------------          ------------         |
 |             1                   1.548047                     12            |
 |             2                   2.189269                      6            |
 |             3                   2.681296                     24            |
 |             4                   3.096094                     12            |
 |             5                   3.461538                     24            |
 |             6                   3.791925                      8            |
 |             7                   4.095747                     48            |
 |             8                   4.378538                      6            |
 |             9                   4.644140                     36            |
 |            10                   4.895354                     24            |
 |            11                   5.134290                     24            |
 |            12                   5.362592                     24            |
 +----------------------------------------------------------------------------+
 | The b-vectors are chosen automatically                                     |
 | The following shells are used:   1                                         |
 +----------------------------------------------------------------------------+
 |                        Shell   # Nearest-Neighbours                        |
 |                        -----   --------------------                        |
 |                          1              12                                 |
 +----------------------------------------------------------------------------+
 | Completeness relation is fully satisfied [Eq. (B1), PRB 56, 12847 (1997)]  |
 +----------------------------------------------------------------------------+
 |                  b_k Vectors (Ang^-1) and Weights (Ang^2)                  |
 |                  ----------------------------------------                  |
 |            No.         b_k(x)      b_k(y)      b_k(z)        w_b           |
 |            ---        --------------------------------     --------        |
 |             1         0.000000   -1.094634    1.094634     0.104321        |
 |             2        -1.094634    1.094634    0.000000     0.104321        |
 |             3        -1.094634    0.000000    1.094634     0.104321        |
 |             4         1.094634    0.000000    1.094634     0.104321        |
 |             5         0.000000    1.094634    1.094634     0.104321        |
 |             6         0.000000    1.094634   -1.094634     0.104321        |
 |             7         1.094634    1.094634    0.000000     0.104321        |
 |             8         1.094634   -1.094634    0.000000     0.104321        |
 |             9         1.094634    0.000000   -1.094634     0.104321        |
 |            10        -1.094634    0.000000   -1.094634     0.104321        |
 |            11        -1.094634   -1.094634    0.000000     0.104321        |
 |            12         0.000000   -1.094634   -1.094634     0.104321        |
 +----------------------------------------------------------------------------+
 |                           b_k Directions (Ang^-1)                          |
 |                           -----------------------                          |
 |            No.           x           y           z                         |
 |            ---        --------------------------------                     |
 |             1         0.000000   -1.094634    1.094634                     |
 |             2        -1.094634    1.094634    0.000000                     |
 |             3        -1.094634    0.000000    1.094634                     |
 |             4         1.094634    0.000000    1.094634                     |
 |             5         0.000000    1.094634    1.094634                     |
 |             6         1.094634    1.094634    0.000000                     |
 +----------------------------------------------------------------------------+
  
 Time to get kmesh              0.024 (sec)
 Reading restart information from file Fe.chk :
 written on  9Dec2017 at 21:01:42 ... done


 Time to read and process       0.094 (sec)

 Reading overlaps from Fe.mmn in get_AA_R   :  Created on 27Mar2017 at 18:44:12


 Properties calculated in module  b e r r y
 ------------------------------------------

   * Anomalous Hall conductivity
  
 Regular interpolation grid: 10 10 10
   Adaptive refinement grid: 5 5 5
       Refinement threshold: Berry curvature > 10.00 Ang^2

 ---------------------------------
 Output data files related to AHC:
 ---------------------------------

   * Fe-ahc-fermiscan.dat                                                                                                    

 Fermi energy (ev):   11.6279
  Points triggering refinement:   60( 6.00%)

 AHC (S/cm)       x          y          z
 ==========    50.8452   -50.6195   157.9628


 Fermi energy (ev):   11.8279
  Points triggering refinement:   12( 1.20%)

 AHC (S/cm)       x          y          z
 ==========    20.5415   -20.5783   568.0110


 Fermi energy (ev):   12.0279
  Points triggering refinement:   32( 3.20%)

 AHC (S/cm)       x          y          z
 ==========    73.6846   -73.7013   533.9092


 Fermi energy (ev):   12.2279
  Points triggering refinement:   24( 2.40%)

 AHC (S/cm)       x          y          z
 ==========    32.3327   -32.3508   210.6353


 Fermi energy (ev):   12.4279
  Points triggering refinement:    4( 0.40%)

 AHC (S/cm)       x          y          z
 ==========     1.2920    -1.2904    11.3236


 Fermi energy (ev):   12.6279
  Points triggering refinement:   58( 5.80%)

 AHC (S/cm)       x          y          z
 ==========    41.9270   -41.9140   722.2670


 Fermi energy (ev):   12.8279
  Points triggering refinement:   88( 8.80%)

 AHC (S/cm)       x          y          z
 ==========    35.7399   -35.7987  2804.9568


 Fermi energy (ev):   13.0279
  Points triggering refinement:    8( 0.80%)

 AHC (S/cm)       x          y          z
 ==========    -5.5539     5.5613   124.5502


 Fermi energy (ev):   13.2279
  Points triggering refinement:    2( 0.20%)

 AHC (S/cm)       x          y          z
 ==========     4.1132    -4.1050   142.0461


 Fermi energy (ev):   13.4279
  Points triggering refinement:    8( 0.80%)

 AHC (S/cm)       x          y          z
 ==========    -1.3633     1.4046   -10.1043


 Fermi energy (ev):   13.6279
  Points triggering refinement:    0( 0.00%)

 AHC (S/cm)       x          y          z
 ==========     0.0011     0.0067    90.2626


 Total Execution Time          19.916 (sec)

 *===========================================================================*
 |                             TIMING INFORMATION                            |
 *===========================================================================*
 |    Tag                                                Ncalls      Time (s)|
 |---------------------------------------------------------------------------|
 |kmesh: get                                        :         1         0.024|
 *---------------------------------------------------------------------------*
 

 All done: postw90 exiting
 
             +---------------------------------------------------+
             |                                                   |
             |                   WANNIER90                       |
             |                                                   |
             +---------------------------------------------------+
             |                                                   |
             |        Welcome to the Maximally-Localized         |
             |        Generalized Wannier Functions code         |
             |            http://www.wannier.org                 |
             |                                                   |
             |                                                   |
             |  Wannier90 Developer Group:                       |
             |    Giovanni Pizzi    (EPFL)                       |
             |    Valerio Vitale    (Cambridge)                  |
             |    David Vanderbilt  (Rutgers University)         |
             |    Nicola Marzari    (EPFL)                       |
             |    Ivo Souza         (Universidad del Pais Vasco) |
             |    Arash A. Mostofi  (Imperial College London)    |
             |    Jonathan R. Yates (University of Oxford)       |
             |                                                   |
             |  For the full list of Wannier90 3.x authors,      |
             |  please check the code documentation and the      |
             |  README on the GitHub page of the code            |
             |                                                   |
             |                                                   |
             |  Please cite                                      |
             |                                                   |
             |  [ref] "Wannier90 as a community code:            |
             |        new features and applications",            |
             |        G. Pizzi et al., J. Phys. Cond. Matt. 32,  |
             |        165902 (2020).                             |
             |        http://doi.org/10.1088/1361-648X/ab51ff    |
             |                                                   |
             |  in any publications arising from the use of      |
             |  this code. For the method please cite            |
             |                                                   |
             |  [ref] "Maximally Localized Generalised Wannier   |
             |         Functions for Composite Energy Bands"     |
             |         N. Marzari and D. Vanderbilt              |
             |         Phys. Rev. B 56 12847 (1997)              |
             |                                                   |
             |  [ref] "Maximally Localized Wannier Functions     |
             |         for Entangled Energy Bands"               |
             |         I. Souza, N. Marzari and D. Vanderbilt    |
             |         Phys. Rev. B 65 035109 (2001)             |
             |                                                   |
             |                                                   |
             | Copyright (c) 1996-2020                           |
             |        The Wannier90 Developer Group and          |
             |        individual contributors                    |
             |                                                   |
             |      Release: 3.1.0        5th March    2020      |
             |                                                   |
             | This program is free software; you can            |
             | redistribute it and/or modify it under the terms  |
             | of the GNU General Public License as published by |
             | the Free Software Foundation; either version 2 of |
             | the License, or (at your option) any later version|
             |                                                   |
             | This program is distributed in the hope that it   |
             | will be useful, but WITHOUT ANY WARRANTY; without |
             | even the implied warranty of MERCHANTABILITY or   |
             | FITNESS FOR A PARTICULAR PURPOSE. See the GNU     |
             | General Public License for more details.          |
             |                                                   |
             | You should have received a copy of the GNU General|
             | Public License along with this program; if not,   |
             | write to the Free Software Foundation, Inc.,      |
             | 675 Mass Ave, Cambridge, MA 02139, USA.           |
             |                                                   |
             +---------------------------------------------------+
             |    Execution started on 18Dec2020 at 18:34:02     |
             +---------------------------------------------------+
 
 ******************************************************************************
 * -> Using CODATA 2006 constant values                                       *
 *    (http://physics.nist.gov/cuu/Constants/index.html)                      *
 * -> Using Bohr value from CODATA                                            *
 ******************************************************************************
 

 Running in serial (with parallel executable)
 
                                    ------
                                    SYSTEM
                                    ------
 
                              Lattice Vectors (Ang)
                    a_1     1.434996   1.434996   1.434996
                    a_2    -1.434996   1.434996   1.434996
                    a_3    -1.434996  -1.434996   1.434996
 
                   Unit Cell Volume:      11.81986  (Ang^3)
 
                        Reciprocal-Space Vectors (Ang^-1)
                    b_1     2.189269   0.000000   2.189269
                    b_2    -2.189269   2.189269   0.000000
                    b_3     0.000000  -2.189269   2.189269
  
 *----------------------------------------------------------------------------*
 |   Site       Fractional Coordinate          Cartesian Coordinate (Ang)     |
 +----------------------------------------------------------------------------+
 | Fe   1   0.00000   0.00000   0.00000   |    0.00000   0.00000   0.00000    |
 *----------------------------------------------------------------------------*
  
  
 *-------------------------------- POSTW90 -----------------------------------*
 |  Number of Wannier Functions               :                18             |
 |  Number of electrons per state             :                 1             |
 |  Scissor shift applied to conduction bands :             0.000             |
 |  Number of valence bands                   :       not defined             |
 |  Fermi energy     :      11 steps from   11.628 to   13.628 eV             |
 |  Output verbosity (1=low, 5=high)          :                 1             |
 |  Timing Level (1=low, 5=high)              :                 1             |
 |  Optimisation (0=memory, 3=speed)          :                 3             |
 |  Length Unit                               :               Ang             |
 *----------------------------------------------------------------------------*
 *------------------------ Global Smearing Parameters ------------------------*
 |  Adaptive width smearing                   :                 T             |
 |  Adaptive smearing factor                  :             1.414             |
 |  Maximum allowed smearing width (eV)       :             1.000             |
 |  Smearing Function                                             Gaussian    |
 |  Global interpolation k-points defined     :                 F             |
 *----------------------------------------------------------------------------*
 *----------------------------------------------------------------------------*
 *--------------------------------- BERRY ------------------------------------*
 |  Compute Berry Phase related properties    :                 T             |
 |  Compute Optical Conductivity and JDOS     :                 F             |
 |  Compute Anomalous Hall Conductivity       :                 T             |
 |  Compute Shift Current                     :                 F             |
 |  Compute Orbital Magnetisation             :                 F             |
 |  Compute Spin Hall Conductivity            :                 F             |
 |  Lower frequency for optical responses     :             0.000             |
 |  Upper frequency for optical responses     :            19.039             |
 |  Step size for optical responses           :             0.010             |
 |  Upper eigenvalue for optical responses    :            30.667             |
 |  Using global smearing parameters                                          |
 |  Grid size                                 :    10 x  10 x  10             |
 |  Using an adaptive refinement mesh of size :                 5             |
 |  Threshold for adaptive refinement         :            10.000             |
 *----------------------------------------------------------------------------*
 Time to read parameters        0.004 (sec)

 *---------------------------------- K-MESH ----------------------------------*
 +----------------------------------------------------------------------------+
 |                    Distance to Nearest-Neighbour Shells                    |
 |                    ------------------------------------                    |
 |          Shell             Distance (Ang^-1)          Multiplicity         |
 |          -----             -----------------          ------------         |
 |             1                   1.548047                     12            |
 |             2                   2.189269                      6            |
 |             3                   2.681296                     24            |
 |             4                   3.096094                     12            |
 |             5                   3.461538                     24            |
 |             6                   3.791925                      8            |
 |             7                   4.095747                     48            |
 |             8                   4.378538                      6            |
 |             9                   4.644140                     36            |
 |            10                   4.895354                     24            |
 |            11                   5.134290                     24            |
 |            12                   5.362592                     24            |
 +----------------------------------------------------------------------------+
 | The b-vectors are chosen automatically                                     |
 | The following shells are used:   1                                         |
 +----------------------------------------------------------------------------+
 |                        Shell   # Nearest-Neighbours                        |
 |                        -----   --------------------                        |
 |                          1              12                                 |
 +----------------------------------------------------------------------------+
 | Completeness relation is fully satisfied [Eq. (B1), PRB 56, 12847 (1997)]  |
 +----------------------------------------------------------------------------+
 |                  b_k Vectors (Ang^-1) and Weights (Ang^2)                  |
 |                  ----------------------------------------                  |
 |            No.         b_k(x)      b_k(y)      b_k(z)        w_b           |
 |            ---        --------------------------------     --------        |
 |             1         0.000000   -1.094634    1.094634     0.104321        |
 |             2        -1.094634    1.094634    0.000000     0.104321        |
 |             3        -1.094634    0.000000    1.094634     0.104321        |
 |             4         1.094634    0.000000    1.094634     0.104321        |
 |             5         0.000000    1.094634    1.094634     0.104321        |
[...]


 Time to read and process       0.095 (sec)

 Reading overlaps from Fe.mmn in get_AA_R   :  Created on 27Mar2017 at 18:44:12


 Properties calculated in module  b e r r y
 ------------------------------------------

   * Anomalous Hall conductivity
  
 Regular interpolation grid: 10 10 10
   Adaptive refinement grid: 5 5 5
       Refinement threshold: Berry curvature > 10.00 Ang^2

 ---------------------------------
 Output data files related to AHC:
 ---------------------------------

   * Fe-ahc-fermiscan.dat                                                                                                    

 Fermi energy (ev):   11.6279
  Points triggering refinement:   60( 6.00%)

 AHC (S/cm)       x          y          z
 ==========    50.8452   -50.6195   157.9628


 Fermi energy (ev):   11.8279
  Points triggering refinement:   12( 1.20%)

 AHC (S/cm)       x          y          z
 ==========    20.5415   -20.5783   568.0110


 Fermi energy (ev):   12.0279
  Points triggering refinement:   32( 3.20%)

 AHC (S/cm)       x          y          z
 ==========    73.6846   -73.7013   533.9092


 Fermi energy (ev):   12.2279
  Points triggering refinement:   24( 2.40%)

 AHC (S/cm)       x          y          z
 ==========    32.3327   -32.3508   210.6353


 Fermi energy (ev):   12.4279
  Points triggering refinement:    4( 0.40%)

 AHC (S/cm)       x          y          z
 ==========     1.2920    -1.2904    11.3236


 Fermi energy (ev):   12.6279
  Points triggering refinement:   58( 5.80%)

 AHC (S/cm)       x          y          z
 ==========    41.9270   -41.9140   722.2670


 Fermi energy (ev):   12.8279
  Points triggering refinement:   88( 8.80%)

 AHC (S/cm)       x          y          z
 ==========    35.7399   -35.7987  2804.9568


 Fermi energy (ev):   13.0279
  Points triggering refinement:    8( 0.80%)

 AHC (S/cm)       x          y          z
 ==========    -5.5539     5.5613   124.5502


 Fermi energy (ev):   13.2279
  Points triggering refinement:    2( 0.20%)

 AHC (S/cm)       x          y          z
 ==========     4.1132    -4.1050   142.0461


 Fermi energy (ev):   13.4279
  Points triggering refinement:    8( 0.80%)

 AHC (S/cm)       x          y          z
 ==========    -1.3633     1.4046   -10.1043


 Fermi energy (ev):   13.6279
  Points triggering refinement:    0( 0.00%)

 AHC (S/cm)       x          y          z
 ==========     0.0011     0.0067    90.2626


 Total Execution Time          54.218 (sec)

 *===========================================================================*
 |                             TIMING INFORMATION                            |
 *===========================================================================*
 |    Tag                                                Ncalls      Time (s)|
 |---------------------------------------------------------------------------|
 |kmesh: get                                        :         1         0.023|
 *---------------------------------------------------------------------------*
 

 All done: postw90 exiting
 
             +---------------------------------------------------+
             |                                                   |
             |                   WANNIER90                       |
             |                                                   |
             +---------------------------------------------------+
             |                                                   |
             |        Welcome to the Maximally-Localized         |
             |        Generalized Wannier Functions code         |
             |            http://www.wannier.org                 |
             |                                                   |
             |                                                   |
             |  Wannier90 Developer Group:                       |
             |    Giovanni Pizzi    (EPFL)                       |
             |    Valerio Vitale    (Cambridge)                  |
             |    David Vanderbilt  (Rutgers University)         |
             |    Nicola Marzari    (EPFL)                       |
             |    Ivo Souza         (Universidad del Pais Vasco) |
             |    Arash A. Mostofi  (Imperial College London)    |
             |    Jonathan R. Yates (University of Oxford)       |
             |                                                   |
             |  For the full list of Wannier90 3.x authors,      |
             |  please check the code documentation and the      |
             |  README on the GitHub page of the code            |
             |                                                   |
             |                                                   |
             |  Please cite                                      |
             |                                                   |
             |  [ref] "Wannier90 as a community code:            |
             |        new features and applications",            |
             |        G. Pizzi et al., J. Phys. Cond. Matt. 32,  |
             |        165902 (2020).                             |
             |        http://doi.org/10.1088/1361-648X/ab51ff    |
             |                                                   |
             |  in any publications arising from the use of      |
             |  this code. For the method please cite            |
             |                                                   |
             |  [ref] "Maximally Localized Generalised Wannier   |
             |         Functions for Composite Energy Bands"     |
             |         N. Marzari and D. Vanderbilt              |
             |         Phys. Rev. B 56 12847 (1997)              |
             |                                                   |
             |  [ref] "Maximally Localized Wannier Functions     |
             |         for Entangled Energy Bands"               |
             |         I. Souza, N. Marzari and D. Vanderbilt    |
             |         Phys. Rev. B 65 035109 (2001)             |
             |                                                   |
             |                                                   |
             | Copyright (c) 1996-2020                           |
             |        The Wannier90 Developer Group and          |
             |        individual contributors                    |
             |                                                   |
             |      Release: 3.1.0        5th March    2020      |
             |                                                   |
             | This program is free software; you can            |
             | redistribute it and/or modify it under the terms  |
             | of the GNU General Public License as published by |
             | the Free Software Foundation; either version 2 of |
             | the License, or (at your option) any later version|
             |                                                   |
             | This program is distributed in the hope that it   |
             | will be useful, but WITHOUT ANY WARRANTY; without |
             | even the implied warranty of MERCHANTABILITY or   |
             | FITNESS FOR A PARTICULAR PURPOSE. See the GNU     |
             | General Public License for more details.          |
             |                                                   |
             | You should have received a copy of the GNU General|
             | Public License along with this program; if not,   |
             | write to the Free Software Foundation, Inc.,      |
             | 675 Mass Ave, Cambridge, MA 02139, USA.           |
             |                                                   |
             +---------------------------------------------------+
             |    Execution started on 25Jan2021 at 12:59:29     |
             +---------------------------------------------------+
 
 ******************************************************************************
 * -> Using CODATA 2006 constant values                                       *
 *    (http://physics.nist.gov/cuu/Constants/index.html)                      *
 * -> Using Bohr value from CODATA                                            *
 ******************************************************************************
 

 Running in parallel on   4 CPUs

 
                                    ------
                                    SYSTEM
                                    ------
 
                              Lattice Vectors (Ang)
                    a_1     1.434996   1.434996   1.434996
                    a_2    -1.434996   1.434996   1.434996
                    a_3    -1.434996  -1.434996   1.434996
 
                   Unit Cell Volume:      11.81986  (Ang^3)
 
                        Reciprocal-Space Vectors (Ang^-1)
                    b_1     2.189269   0.000000   2.189269
                    b_2    -2.189269   2.189269   0.000000
                    b_3     0.000000  -2.189269   2.189269
  
 *----------------------------------------------------------------------------*
 |   Site       Fractional Coordinate          Cartesian Coordinate (Ang)     |
 +----------------------------------------------------------------------------+
 | Fe   1   0.00000   0.00000   0.00000   |    0.00000   0.00000   0.00000    |
 *----------------------------------------------------------------------------*
  
  
 *-------------------------------- POSTW90 -----------------------------------*
 |  Number of Wannier Functions               :                18             |
 |  Number of electrons per state             :                 1             |
 |  Scissor shift applied to conduction bands :             0.000             |
 |  Number of valence bands                   :       not defined             |
 |  Fermi energy     :      11 steps from   11.628 to   13.628 eV             |
 |  Output verbosity (1=low, 5=high)          :                 1             |
 |  Timing Level (1=low, 5=high)              :                 1             |
 |  Optimisation (0=memory, 3=speed)          :                 3             |
 |  Length Unit                               :               Ang             |
 *----------------------------------------------------------------------------*
 *------------------------ Global Smearing Parameters ------------------------*
 |  Adaptive width smearing                   :                 T             |
 |  Adaptive smearing factor                  :             1.414             |
 |  Maximum allowed smearing width (eV)       :             1.000             |
 |  Smearing Function                                             Gaussian    |
 |  Global interpolation k-points defined     :                 F             |
 *----------------------------------------------------------------------------*
 *----------------------------------------------------------------------------*
 *--------------------------------- BERRY ------------------------------------*
 |  Compute Berry Phase related properties    :                 T             |
 |  Compute Optical Conductivity and JDOS     :                 F             |
 |  Compute Anomalous Hall Conductivity       :                 T             |
 |  Compute Shift Current                     :                 F             |
 |  Compute Orbital Magnetisation             :                 F             |
 |  Compute Spin Hall Conductivity            :                 F             |
 |  Lower frequency for optical responses     :             0.000             |
 |  Upper frequency for optical responses     :            19.039             |
 |  Step size for optical responses           :             0.010             |
 |  Upper eigenvalue for optical responses    :            30.667             |
 |  Using global smearing parameters                                          |
 |  Grid size                                 :    10 x  10 x  10             |
 |  Using an adaptive refinement mesh of size :                 5             |
 |  Threshold for adaptive refinement         :            10.000             |
 *----------------------------------------------------------------------------*
 Time to read parameters        0.004 (sec)

 *---------------------------------- K-MESH ----------------------------------*
 +----------------------------------------------------------------------------+
 |                    Distance to Nearest-Neighbour Shells                    |
 |                    ------------------------------------                    |
 |          Shell             Distance (Ang^-1)          Multiplicity         |
 |          -----             -----------------          ------------         |
 |             1                   1.548047                     12            |
 |             2                   2.189269                      6            |
 |             3                   2.681296                     24            |
 |             4                   3.096094                     12            |
 |             5                   3.461538                     24            |
 |             6                   3.791925                      8            |
 |             7                   4.095747                     48            |
 |             8                   4.378538                      6            |
 |             9                   4.644140                     36            |
 |            10                   4.895354                     24            |
 |            11                   5.134290                     24            |
 |            12                   5.362592                     24            |
 +----------------------------------------------------------------------------+
 | The b-vectors are chosen automatically                                     |
 | The following shells are used:   1                                         |
 +----------------------------------------------------------------------------+
 |                        Shell   # Nearest-Neighbours                        |
 |                        -----   --------------------                        |
 |                          1              12                                 |
 +----------------------------------------------------------------------------+
 | Completeness relation is fully satisfied [Eq. (B1), PRB 56, 12847 (1997)]  |
 +----------------------------------------------------------------------------+
 |                  b_k Vectors (Ang^-1) and Weights (Ang^2)                  |
 |                  ----------------------------------------                  |
 |            No.         b_k(x)      b_k(y)      b_k(z)        w_b           |
 |            ---        --------------------------------     --------        |
 |             1         0.000000   -1.094634    1.094634     0.104321        |
 |             2        -1.094634    1.094634    0.000000     0.104321        |
 |             3        -1.094634    0.000000    1.094634     0.104321        |
 |             4         1.094634    0.000000    1.094634     0.104321        |
 |             5         0.000000    1.094634    1.094634     0.104321        |
 |             6         0.000000    1.094634   -1.094634     0.104321        |
 |             7         1.094634    1.094634    0.000000     0.104321        |
 |             8         1.094634   -1.094634    0.000000     0.104321        |
 |             9         1.094634    0.000000   -1.094634     0.104321        |
 |            10        -1.094634    0.000000   -1.094634     0.104321        |
 |            11        -1.094634   -1.094634    0.000000     0.104321        |
 |            12         0.000000   -1.094634   -1.094634     0.104321        |
 +----------------------------------------------------------------------------+
 |                           b_k Directions (Ang^-1)                          |
 |                           -----------------------                          |
 |            No.           x           y           z                         |
 |            ---        --------------------------------                     |
 |             1         0.000000   -1.094634    1.094634                     |
 |             2        -1.094634    1.094634    0.000000                     |
 |             3        -1.094634    0.000000    1.094634                     |
 |             4         1.094634    0.000000    1.094634                     |
 |             5         0.000000    1.094634    1.094634                     |
 |             6         1.094634    1.094634    0.000000                     |
 +----------------------------------------------------------------------------+
  
 Time to get kmesh              0.023 (sec)
 Reading restart information from file Fe.chk :
 written on  9Dec2017 at 21:01:42 ... done


 Time to read and process       0.095 (sec)

 Reading overlaps from Fe.mmn in get_AA_R   :  Created on 27Mar2017 at 18:44:12


 Properties calculated in module  b e r r y
 ------------------------------------------

   * Anomalous Hall conductivity
  
 Regular interpolation grid: 10 10 10
   Adaptive refinement grid: 5 5 5
       Refinement threshold: Berry curvature > 10.00 Ang^2

 ---------------------------------
 Output data files related to AHC:
 ---------------------------------

   * Fe-ahc-fermiscan.dat                                                                                                    

 Fermi energy (ev):   11.6279
  Points triggering refinement:   60( 6.00%)

 AHC (S/cm)       x          y          z
 ==========    50.8452   -50.6195   157.9628


 Fermi energy (ev):   11.8279
  Points triggering refinement:   12( 1.20%)

 AHC (S/cm)       x          y          z
 ==========    20.5415   -20.5783   568.0110


 Fermi energy (ev):   12.0279
  Points triggering refinement:   32( 3.20%)

 AHC (S/cm)       x          y          z
 ==========    73.6846   -73.7013   533.9092


 Fermi energy (ev):   12.2279
  Points triggering refinement:   24( 2.40%)

 AHC (S/cm)       x          y          z
 ==========    32.3327   -32.3508   210.6353


 Fermi energy (ev):   12.4279
  Points triggering refinement:    4( 0.40%)

 AHC (S/cm)       x          y          z
 ==========     1.2920    -1.2904    11.3236


 Fermi energy (ev):   12.6279
  Points triggering refinement:   58( 5.80%)

 AHC (S/cm)       x          y          z
 ==========    41.9270   -41.9140   722.2670


 Fermi energy (ev):   12.8279
  Points triggering refinement:   88( 8.80%)

 AHC (S/cm)       x          y          z
 ==========    35.7399   -35.7987  2804.9568


 Fermi energy (ev):   13.0279
  Points triggering refinement:    8( 0.80%)

 AHC (S/cm)       x          y          z
 ==========    -5.5539     5.5613   124.5502


 Fermi energy (ev):   13.2279
  Points triggering refinement:    2( 0.20%)

 AHC (S/cm)       x          y          z
 ==========     4.1132    -4.1050   142.0461


 Fermi energy (ev):   13.4279
  Points triggering refinement:    8( 0.80%)

 AHC (S/cm)       x          y          z
 ==========    -1.3633     1.4046   -10.1043


 Fermi energy (ev):   13.6279
  Points triggering refinement:    0( 0.00%)

 AHC (S/cm)       x          y          z
 ==========     0.0011     0.0067    90.2626


 Total Execution Time          19.866 (sec)

 *===========================================================================*
 |                             TIMING INFORMATION                            |
 *===========================================================================*
 |    Tag                                                Ncalls      Time (s)|
 |---------------------------------------------------------------------------|
 |kmesh: get                                        :         1         0.023|
 *---------------------------------------------------------------------------*
 

 All done: postw90 exiting
