 written on 24May2018 at 11:39:22 
           8           4           4

   0.0000000000  +0.0000000000  +0.0000000000
  -0.4061849906  -0.2915711806
  +0.3529114575  -0.3857843212
  +0.1346072780  -0.4491959940
  -0.1518991556  +0.4833781613
  -0.4061849906  -0.2915711806
  -0.7651166579  +0.1348383284
  +0.2962575867  +0.0457811999
  -0.2351893789  +0.0351653953
  -0.4061849906  -0.2915711806
  +0.1821455114  +0.0732825179
  -0.0019866248  -0.2592303017
  +0.3515831812  -0.7215522544
  -0.4061849906  -0.2915711806
  +0.2300596890  +0.1776634749
  -0.4288782399  +0.6626450958
  +0.0355053533  +0.2030086978

   0.0000000000  +0.0000000000  +0.5000000000
  -0.1057132567  +0.5246202143
  -0.0427931934  +0.2123685807
  -0.2677342524  -0.1689351101
  -0.1897175166  -0.7283222015
  -0.1057132567  +0.5246202143
  -0.0427931934  +0.2123685807
  +0.7091062705  +0.3909547503
  +0.0064929377  +0.1046288142
  -0.0741199852  +0.3678331716
  +0.1831007316  -0.9086688658
  -0.0000000000  +0.0000000000
  +0.0000000000  -0.0000000000
  -0.1057132567  +0.5246202143
  -0.0427931934  +0.2123685807
  -0.4413720181  -0.2220196402
  +0.1832245788  +0.6236933873

   0.0000000000  +0.5000000000  +0.0000000000
  -0.0165918202  -0.3748596082
  +0.0409872506  +0.9260264742
  -0.0000000000  +0.0000000000
  +0.0000000000  -0.0000000000
  -0.0236640002  -0.5346416342
  -0.0095792918  -0.2164252957
  -0.3107782122  +0.7226193256
  -0.0048615116  -0.2188178363
  -0.0236640002  -0.5346416342
  -0.0095792918  -0.2164252957
  +0.1990785780  -0.1768648475
  +0.4206171353  +0.6471741942
  -0.0236640002  -0.5346416342
  -0.0095792918  -0.2164252957
  +0.1116996343  -0.5457544781
  -0.4157556237  -0.4283563579

   0.0000000000  +0.5000000000  +0.5000000000
   0.4795086321  +0.1416738216
  +0.4227012575  +0.2670648740
  -0.4467842443  +0.1850911269
  +0.1572281390  +0.4913292441
  +0.4795086321  +0.1416738216
  -0.4227012575  -0.2670648740
  -0.4456619355  -0.2598279297
  +0.2773909718  -0.3961428214
  +0.4795086321  +0.1416738216
  +0.4227012575  +0.2670648740
  +0.4467842443  -0.1850911269
  -0.1572281390  -0.4913292441
  +0.4795086321  +0.1416738216
  -0.4227012575  -0.2670648740
  +0.4456619355  +0.2598279297
  -0.2773909718  +0.3961428214

   0.5000000000  +0.0000000000  +0.0000000000
  -0.5016658951  -0.1863678931
  +0.2030765708  +0.0754425466
  +0.0667343881  +0.4896170170
  -0.0536231650  -0.6477753630
  -0.5016658951  -0.1863678931
  +0.2030765708  +0.0754425466
  -0.0824525790  -0.8055730746
  +0.0120769711  -0.1037998419
  -0.5016658951  -0.1863678931
  +0.2030765708  +0.0754425466
  +0.0157181909  +0.3159560576
  +0.0415461939  +0.7515752049
  -0.3517389385  -0.1306703237
  -0.8689108187  -0.3227986598
  -0.0000000000  -0.0000000000
  +0.0000000000  +0.0000000000

   0.5000000000  +0.0000000000  +0.5000000000
  -0.1354779321  +0.4812958860
  -0.4999902325  +0.0031252907
  -0.1317886266  -0.6902445689
  +0.0418866180  +0.0666311058
  -0.1354779321  +0.4812958860
  -0.4999902325  +0.0031252907
  +0.1317886266  +0.6902445689
  -0.0418866180  -0.0666311058
  -0.1354779321  +0.4812958860
  +0.4999902325  -0.0031252907
  -0.0757650264  -0.0213038449
  -0.6993108833  +0.0690658780
  -0.1354779321  +0.4812958860
  +0.4999902325  -0.0031252907
  +0.0757650264  +0.0213038449
  +0.6993108833  -0.0690658780

   0.5000000000  +0.5000000000  +0.0000000000
   0.4595043957  +0.1971185186
  -0.2983112338  -0.4012610220
  -0.6384297422  +0.3007600988
  +0.0100645131  -0.0430061951
  +0.4595043957  +0.1971185186
  +0.2983112338  +0.4012610220
  +0.0441660736  -0.0004303241
  +0.4329158459  -0.5573446359
  +0.4595043957  +0.1971185186
  +0.2983112338  +0.4012610220
  -0.0441660736  +0.0004303241
  -0.4329158459  +0.5573446359
  +0.4595043957  +0.1971185186
  -0.2983112338  -0.4012610220
  +0.6384297422  -0.3007600988
  -0.0100645131  +0.0430061951

   0.5000000000  +0.5000000000  +0.5000000000
  -0.2804138398  +0.4558176613
  -0.1135127613  +0.1845170032
  +0.2696754754  +0.6633844965
  +0.3920008996  -0.0140751259
  -0.1966098699  +0.3195928244
  +0.4856910177  -0.7894993483
  -0.0000000000  -0.0000000000
  -0.0000000000  -0.0000000000
  -0.2804138398  +0.4558176613
  -0.1135127613  +0.1845170032
  +0.1502710963  -0.1470031483
  -0.6912892398  +0.3802558686
  -0.2804138398  +0.4558176613
  -0.1135127613  +0.1845170032
  -0.4199465717  -0.5163813481
  +0.2992883402  -0.3661807427
