 written on 24Nov2020 at 11:41:47 
  -1.61399000000000       0.000000000000000E+000   1.61399000000000     
  0.000000000000000E+000   1.61399000000000        1.61399000000000     
  -1.61399000000000        1.61399000000000       0.000000000000000E+000
           4
          93
    4    6    2    2    2    1    2    2    1    1    2    6    2    2    2
    6    2    2    4    1    1    1    4    1    1    1    1    2    1    1
    1    2    2    1    1    2    4    2    1    2    1    1    1    1    2
    1    1    1    2    1    1    1    1    2    1    2    4    2    1    1
    2    2    1    1    1    2    1    1    1    1    4    1    1    1    4
    2    2    6    2    2    2    6    2    1    1    2    2    1    2    2
    2    6    4

   -3    1    1
    1    1    0.73784761E-02 -0.49930496E-09
    2    1   -0.85402700E-02  0.12709103E-08
    3    1   -0.85402721E-02  0.93766329E-09
    4    1   -0.85402732E-02  0.12262535E-08
    1    2   -0.85402740E-02 -0.33799559E-09
    2    2    0.73784758E-02  0.18088067E-09
    3    2   -0.85402712E-02  0.31270503E-09
    4    2   -0.85402712E-02 -0.92166723E-09
    1    3   -0.85402719E-02 -0.53171342E-09
    2    3   -0.85402747E-02  0.71596590E-10
    3    3    0.73784754E-02 -0.38338940E-09
    4    3   -0.85402705E-02 -0.46481609E-09
    1    4   -0.85402705E-02 -0.63090157E-09
    2    4   -0.85402733E-02 -0.79167715E-09
    3    4   -0.85402742E-02  0.10222963E-09
    4    4    0.73784759E-02  0.70178188E-09

   -2   -2    2
    1    1    0.11647286E-01 -0.17481309E-16
    2    1   -0.35022562E-02  0.26662492E-09
    3    1   -0.35022557E-02 -0.13640334E-08
    4    1   -0.35022554E-02  0.14873152E-09
    1    2   -0.35022562E-02 -0.26662494E-09
    2    2    0.11647286E-01  0.64575799E-16
    3    2   -0.35022556E-02  0.59006986E-09
    4    2   -0.35022555E-02  0.86230901E-09
    1    3   -0.35022557E-02  0.13640334E-08
    2    3   -0.35022556E-02 -0.59006992E-09
    3    3    0.11647286E-01  0.28217865E-16
    4    3   -0.35022564E-02 -0.11935483E-09
    1    4   -0.35022554E-02 -0.14873151E-09
    2    4   -0.35022555E-02 -0.86230903E-09
    3    4   -0.35022564E-02  0.11935487E-09
    4    4    0.11647286E-01 -0.37362973E-16

   -2   -1    1
    1    1    0.15749602E-01 -0.21521192E-09
    2    1   -0.19883008E-02 -0.14200652E-09
    3    1   -0.79546417E-02 -0.30174827E-09
    4    1    0.15396630E-02  0.28559031E-09
    1    2   -0.79546425E-02  0.12662595E-08
    2    2    0.12409574E-01 -0.89970020E-10
    3    2   -0.35022564E-02 -0.65134242E-10
    4    2   -0.79546408E-02  0.21352929E-09
    1    3   -0.19883009E-02  0.43968828E-09
    2    3   -0.40231872E-02 -0.23091975E-09
    3    3    0.12409575E-01  0.37297458E-09
    4    3   -0.19883007E-02  0.11541644E-08
    1    4    0.15396630E-02 -0.95293377E-09
    2    4   -0.19883019E-02 -0.14690303E-08
    3    4   -0.79546408E-02 -0.69267488E-10
    4    4    0.15749601E-01 -0.67785097E-10

   -2   -1    2
    1    1    0.12409574E-01  0.17379370E-09
    2    1   -0.79546394E-02 -0.57679611E-10
    3    1   -0.35022556E-02 -0.49633454E-09
    4    1   -0.79546411E-02 -0.55327015E-09
    1    2   -0.19883018E-02 -0.49419027E-09
    2    2    0.15749602E-01 -0.39494050E-09
    3    2   -0.79546422E-02  0.37221989E-10
    4    2    0.15396644E-02  0.69269181E-09
    1    3   -0.40231886E-02 -0.45372102E-09
    2    3   -0.19883010E-02  0.69513742E-10
    3    3    0.12409574E-01  0.25851882E-09
    4    3   -0.19882999E-02  0.10846226E-08
    1    4   -0.19883002E-02 -0.21177827E-08
    2    4    0.15396621E-02 -0.42917356E-09
    3    4   -0.79546408E-02 -0.49037785E-09
    4    4    0.15749601E-01 -0.37399084E-10

   -2    0    0
    1    1    0.17684994E+00  0.56377582E-15
    2    1   -0.21538153E-01 -0.19281590E-08
    3    1   -0.21538153E-01 -0.38277267E-09
    4    1   -0.25466097E+00  0.35900946E-09
    1    2   -0.21538153E-01  0.19281587E-08
    2    2   -0.17298469E-01  0.46719448E-15
    3    2   -0.40231870E-02  0.17163512E-09
    4    2   -0.21538151E-01 -0.13715777E-08
    1    3   -0.21538153E-01  0.38277232E-09
    2    3   -0.40231870E-02 -0.17163540E-09
    3    3   -0.17298469E-01  0.47836171E-15
    4    3   -0.21538149E-01 -0.97282311E-10
    1    4   -0.25466097E+00 -0.35900995E-09
    2    4   -0.21538151E-01  0.13715773E-08
    3    4   -0.21538149E-01  0.97281963E-10
    4    4    0.17684994E+00  0.57623070E-15

   -2    0    1
    1    1   -0.12934222E-01 -0.46134632E-09
    2    1   -0.21538149E-01  0.10549214E-08
    3    1   -0.19883009E-02 -0.90405207E-09
    4    1    0.13490016E-01 -0.44141139E-09
    1    2   -0.21538153E-01  0.33358884E-09
    2    2   -0.12934223E-01 -0.11237654E-08
    3    2   -0.19883014E-02 -0.82217566E-09
    4    2    0.13490018E-01 -0.38088734E-09
    1    3    0.30209095E-01 -0.13928330E-09
    2    3    0.30209094E-01  0.76953603E-09
    3    3    0.31513786E-02  0.39399745E-09
    4    3   -0.85402707E-02 -0.48207299E-10
    1    4    0.10031798E+00 -0.11647368E-08
    2    4    0.10031798E+00 -0.20815281E-08
    3    4   -0.38176757E-01  0.62153688E-09
    4    4   -0.88755138E-04  0.11910914E-08

   -2    0    2
    1    1   -0.17298468E-01 -0.26291903E-17
    2    1   -0.21538149E-01  0.62222458E-09
    3    1   -0.40231863E-02  0.14406786E-08
    4    1   -0.21538152E-01  0.23169890E-09
    1    2   -0.21538149E-01 -0.62222453E-09
    2    2    0.17684994E+00  0.11970499E-16
    3    2   -0.21538154E-01  0.41894351E-09
    4    2   -0.25466097E+00 -0.91655183E-09
    1    3   -0.40231863E-02 -0.14406786E-08
    2    3   -0.21538154E-01 -0.41894355E-09
    3    3   -0.17298469E-01 -0.15693774E-16
    4    3   -0.21538149E-01  0.10721637E-08
    1    4   -0.21538152E-01 -0.23169890E-09
    2    4   -0.25466097E+00  0.91655180E-09
    3    4   -0.21538149E-01 -0.10721637E-08
    4    4    0.17684994E+00 -0.16754647E-16

   -2    1   -1
    1    1    0.15749602E-01  0.21521181E-09
    2    1   -0.79546425E-02 -0.12662595E-08
    3    1   -0.19883009E-02 -0.43968838E-09
    4    1    0.15396630E-02  0.95293377E-09
    1    2   -0.19883008E-02  0.14200648E-09
    2    2    0.12409574E-01  0.89970181E-10
    3    2   -0.40231872E-02  0.23091958E-09
    4    2   -0.19883019E-02  0.14690303E-08
    1    3   -0.79546417E-02  0.30174827E-09
    2    3   -0.35022564E-02  0.65134141E-10
    3    3    0.12409575E-01 -0.37297449E-09
    4    3   -0.79546408E-02  0.69267491E-10
    1    4    0.15396630E-02 -0.28559032E-09
    2    4   -0.79546408E-02 -0.21352929E-09
    3    4   -0.19883007E-02 -0.11541646E-08
    4    4    0.15749601E-01  0.67785124E-10

   -2    1    0
    1    1   -0.12934222E-01 -0.54794100E-10
    2    1   -0.19883005E-02 -0.54013291E-09
    3    1   -0.21538150E-01  0.58684713E-09
    4    1    0.13490016E-01 -0.52513476E-09
    1    2    0.30209092E-01  0.65723531E-09
    2    2    0.31513776E-02 -0.33380937E-09
    3    2    0.30209098E-01  0.23952001E-09
    4    2   -0.85402722E-02 -0.10699246E-08
    1    3   -0.21538152E-01  0.69460716E-09
    2    3   -0.19883024E-02 -0.63831629E-09
    3    3   -0.12934223E-01  0.60660602E-09
    4    3    0.13490018E-01  0.43137234E-09
    1    4    0.10031798E+00 -0.21515620E-08
    2    4   -0.38176756E-01  0.10962462E-08
    3    4    0.10031798E+00 -0.21413653E-08
    4    4   -0.88754831E-04 -0.21805657E-09

   -2    1    1
    1    1    0.31513776E-02 -0.10994147E-09
    2    1    0.30209098E-01  0.34101533E-09
    3    1    0.30209096E-01  0.14625250E-08
    4    1   -0.85402757E-02 -0.46871763E-10
    1    2   -0.19883003E-02 -0.44000367E-09
    2    2   -0.12934222E-01 -0.58205171E-09
    3    2   -0.21538149E-01 -0.19890298E-10
    4    2    0.13490018E-01 -0.45743496E-09
    1    3   -0.19883002E-02 -0.47091920E-09
    2    3   -0.21538152E-01  0.82531210E-09
    3    3   -0.12934222E-01 -0.21418342E-09
    4    3    0.13490018E-01 -0.73098582E-09
    1    4   -0.38176759E-01  0.21351786E-08
    2    4    0.10031798E+00 -0.21457820E-08
    3    4    0.10031797E+00 -0.86270338E-09
    4    4   -0.88754491E-04  0.90621044E-09

   -2    1    2
    1    1    0.12409574E-01 -0.17379363E-09
    2    1   -0.19883018E-02  0.49419030E-09
    3    1   -0.40231886E-02  0.45372101E-09
    4    1   -0.19883002E-02  0.21177827E-08
    1    2   -0.79546394E-02  0.57679639E-10
    2    2    0.15749602E-01  0.39494055E-09
    3    2   -0.19883010E-02 -0.69513686E-10
    4    2    0.15396621E-02  0.42917361E-09
    1    3   -0.35022556E-02  0.49633455E-09
    2    3   -0.79546422E-02 -0.37222003E-10
    3    3    0.12409574E-01 -0.25851882E-09
    4    3   -0.79546408E-02  0.49037788E-09
    1    4   -0.79546411E-02  0.55327017E-09
    2    4    0.15396644E-02 -0.69269181E-09
    3    4   -0.19882999E-02 -0.10846226E-08
    4    4    0.15749601E-01  0.37398917E-10

   -2    2   -2
    1    1    0.11647286E-01 -0.17481310E-16
    2    1   -0.35022562E-02  0.26662494E-09
    3    1   -0.35022557E-02 -0.13640334E-08
    4    1   -0.35022554E-02  0.14873152E-09
    1    2   -0.35022562E-02 -0.26662492E-09
    2    2    0.11647286E-01  0.39981406E-16
    3    2   -0.35022556E-02  0.59006987E-09
    4    2   -0.35022555E-02  0.86230903E-09
    1    3   -0.35022557E-02  0.13640334E-08
    2    3   -0.35022556E-02 -0.59006991E-09
    3    3    0.11647286E-01  0.52812258E-16
    4    3   -0.35022564E-02 -0.11935487E-09
    1    4   -0.35022554E-02 -0.14873152E-09
    2    4   -0.35022555E-02 -0.86230900E-09
    3    4   -0.35022564E-02  0.11935484E-09
    4    4    0.11647286E-01 -0.37362973E-16

   -2    2   -1
    1    1    0.12409574E-01  0.76145035E-10
    2    1   -0.35022554E-02 -0.50001246E-09
    3    1   -0.79546400E-02 -0.46236297E-09
    4    1   -0.79546416E-02 -0.14064498E-08
    1    2   -0.40231880E-02 -0.46083640E-09
    2    2    0.12409575E-01 -0.18816276E-09
    3    2   -0.19883013E-02 -0.34370314E-09
    4    2   -0.19882994E-02  0.51412277E-09
    1    3   -0.19883023E-02  0.66103349E-09
    2    3   -0.79546395E-02 -0.29039743E-09
    3    3    0.15749601E-01 -0.19740787E-09
    4    3    0.15396621E-02 -0.52539913E-09
    1    4   -0.19883003E-02 -0.10838901E-08
    2    4   -0.79546402E-02  0.48492178E-09
    3    4    0.15396629E-02 -0.34730191E-09
    4    4    0.15749602E-01  0.30943628E-09

   -2    2    0
    1    1   -0.17298469E-01  0.29165038E-16
    2    1   -0.40231864E-02  0.14322692E-09
    3    1   -0.21538149E-01  0.42108108E-09
    4    1   -0.21538153E-01 -0.10150242E-08
    1    2   -0.40231864E-02 -0.14322692E-09
    2    2   -0.17298468E-01 -0.31252128E-16
    3    2   -0.21538150E-01  0.11687134E-08
    4    2   -0.21538150E-01 -0.13500264E-08
    1    3   -0.21538149E-01 -0.42108109E-09
    2    3   -0.21538150E-01 -0.11687135E-08
    3    3    0.17684994E+00  0.32353447E-16
    4    3   -0.25466097E+00 -0.13135955E-08
    1    4   -0.21538153E-01  0.10150242E-08
    2    4   -0.21538150E-01  0.13500264E-08
    3    4   -0.25466097E+00  0.13135955E-08
    4    4    0.17684994E+00 -0.40692700E-17

   -2    2    1
    1    1    0.12409574E-01 -0.76145035E-10
    2    1   -0.40231880E-02  0.46083641E-09
    3    1   -0.19883023E-02 -0.66103353E-09
    4    1   -0.19883003E-02  0.10838902E-08
    1    2   -0.35022554E-02  0.50001246E-09
    2    2    0.12409575E-01  0.18816276E-09
    3    2   -0.79546395E-02  0.29039740E-09
    4    2   -0.79546402E-02 -0.48492178E-09
    1    3   -0.79546400E-02  0.46236293E-09
    2    3   -0.19883013E-02  0.34370315E-09
    3    3    0.15749601E-01  0.19740792E-09
    4    3    0.15396629E-02  0.34730190E-09
    1    4   -0.79546416E-02  0.14064498E-08
    2    4   -0.19882994E-02 -0.51412283E-09
    3    4    0.15396621E-02  0.52539909E-09
    4    4    0.15749602E-01 -0.30943628E-09

   -2    2    2
    1    1    0.11647286E-01 -0.14123184E-16
    2    1   -0.35022562E-02  0.26662492E-09
    3    1   -0.35022557E-02 -0.13640334E-08
    4    1   -0.35022554E-02  0.14873152E-09
    1    2   -0.35022562E-02 -0.26662493E-09
    2    2    0.11647286E-01  0.43339531E-16
    3    2   -0.35022556E-02  0.59006987E-09
    4    2   -0.35022555E-02  0.86230902E-09
    1    3   -0.35022557E-02  0.13640334E-08
    2    3   -0.35022556E-02 -0.59006990E-09
    3    3    0.11647286E-01  0.31575991E-16
    4    3   -0.35022564E-02 -0.11935484E-09
    1    4   -0.35022554E-02 -0.14873152E-09
    2    4   -0.35022555E-02 -0.86230902E-09
    3    4   -0.35022564E-02  0.11935487E-09
    4    4    0.11647286E-01 -0.58599240E-16

   -1   -2    1
    1    1    0.15749602E-01 -0.54436031E-09
    2    1   -0.19883023E-02  0.48861585E-09
    3    1    0.15396614E-02  0.14323549E-09
    4    1   -0.79546415E-02 -0.16936015E-10
    1    2   -0.79546417E-02  0.35534208E-09
    2    2    0.12409574E-01  0.39899954E-09
    3    2   -0.79546401E-02 -0.22164267E-10
    4    2   -0.35022553E-02  0.28488712E-10
    1    3    0.15396646E-02  0.12888099E-08
    2    3   -0.19883002E-02 -0.62489580E-09
    3    3    0.15749602E-01 -0.26874103E-09
    4    3   -0.79546415E-02  0.17080182E-09
    1    4   -0.19882995E-02 -0.13691867E-08
    2    4   -0.40231880E-02 -0.11847601E-09
    3    4   -0.19883020E-02  0.18640199E-08
    4    4    0.12409574E-01  0.41408215E-09

   -1   -2    2
    1    1    0.12409574E-01 -0.14423654E-09
    2    1   -0.79546405E-02  0.72376352E-09
    3    1   -0.79546419E-02 -0.10967010E-08
    4    1   -0.35022557E-02 -0.61466095E-09
    1    2   -0.19883026E-02  0.16719433E-08
    2    2    0.15749601E-01 -0.29534200E-09
    3    2    0.15396630E-02 -0.23909644E-09
    4    2   -0.79546412E-02  0.72136352E-09
    1    3   -0.19883008E-02  0.77633921E-09
    2    3    0.15396627E-02 -0.56690677E-09
    3    3    0.15749602E-01 -0.37822301E-10
    4    3   -0.79546423E-02  0.48214548E-09
    1    4   -0.40231869E-02 -0.67899032E-09
    2    4   -0.19883025E-02 -0.14819255E-08
    3    4   -0.19882994E-02 -0.15090652E-09
    4    4    0.12409575E-01  0.47741985E-09

   -1   -1   -1
    1    1    0.73784761E-02  0.49930503E-09
    2    1   -0.85402740E-02  0.33799560E-09
    3    1   -0.85402719E-02  0.53171344E-09
    4    1   -0.85402705E-02  0.63090153E-09
    1    2   -0.85402700E-02 -0.12709103E-08
    2    2    0.73784758E-02 -0.18088062E-09
    3    2   -0.85402747E-02 -0.71596618E-10
    4    2   -0.85402733E-02  0.79167725E-09
    1    3   -0.85402721E-02 -0.93766330E-09
    2    3   -0.85402712E-02 -0.31270500E-09
    3    3    0.73784754E-02  0.38338938E-09
    4    3   -0.85402742E-02 -0.10222959E-09
    1    4   -0.85402732E-02 -0.12262535E-08
    2    4   -0.85402712E-02  0.92166724E-09
    3    4   -0.85402705E-02  0.46481606E-09
    4    4    0.73784759E-02 -0.70178197E-09

   -1   -1    0
    1    1   -0.88755095E-04 -0.16847919E-09
    2    1   -0.85402763E-02 -0.18792017E-09
    3    1    0.13490015E-01  0.99368438E-09
    4    1    0.13490019E-01  0.10444176E-08
    1    2   -0.38176758E-01  0.89396390E-09
    2    2    0.31513777E-02  0.50412661E-09
    3    2   -0.19883018E-02  0.44864272E-09
    4    2   -0.19883009E-02 -0.96323520E-09
    1    3    0.10031798E+00  0.44544616E-09
    2    3    0.30209098E-01 -0.10734559E-08
    3    3   -0.12934222E-01 -0.57063610E-09
    4    3   -0.21538153E-01  0.17868315E-08
    1    4    0.10031797E+00 -0.15797475E-08
    2    4    0.30209095E-01  0.19273483E-08
    3    4   -0.21538149E-01  0.10928745E-08
    4    4   -0.12934222E-01  0.23499470E-09

   -1   -1    1
    1    1    0.15321719E-01 -0.74356518E-09
    2    1   -0.38176758E-01  0.52498471E-09
    3    1    0.15396611E-02  0.95303508E-10
    4    1    0.15396623E-02  0.10346241E-09
    1    2   -0.38176760E-01  0.18250228E-08
    2    2    0.15321719E-01  0.47763293E-10
    3    2    0.15396620E-02  0.12001455E-09
    4    2    0.15396638E-02 -0.58012078E-09
    1    3    0.32232677E-01  0.98242320E-09
    2    3    0.32232677E-01 -0.10570314E-08
    3    3    0.15321720E-01  0.42032672E-09
    4    3   -0.38176759E-01  0.15071954E-08
    1    4    0.32232678E-01 -0.24386205E-08
    2    4    0.32232674E-01 -0.29482554E-08
    3    4   -0.38176757E-01  0.13123004E-08
    4    4    0.15321719E-01  0.27542238E-09

   -1   -1    2
    1    1    0.31513778E-02 -0.26714063E-09
    2    1   -0.38176756E-01  0.10152680E-08
    3    1   -0.19883003E-02  0.10264751E-09
    4    1   -0.19883008E-02 -0.70393077E-09
    1    2   -0.85402711E-02 -0.26885692E-08
    2    2   -0.88754677E-04  0.75870293E-09
    3    2    0.13490016E-01 -0.99131508E-09
    4    2    0.13490017E-01  0.14466620E-08
    1    3    0.30209097E-01 -0.36547534E-09
    2    3    0.10031798E+00 -0.53358547E-09
    3    3   -0.12934223E-01  0.19261018E-09
    4    3   -0.21538152E-01  0.63102383E-09
    1    4    0.30209093E-01 -0.58107049E-09
    2    4    0.10031797E+00 -0.14710933E-09
    3    4   -0.21538149E-01 -0.14265701E-09
    4    4   -0.12934222E-01 -0.68415968E-09

   -1   -1    3
    1    1    0.73784761E-02  0.49930504E-09
    2    1   -0.85402740E-02  0.33799559E-09
    3    1   -0.85402719E-02  0.53171344E-09
    4    1   -0.85402705E-02  0.63090155E-09
    1    2   -0.85402700E-02 -0.12709102E-08
    2    2    0.73784758E-02 -0.18088067E-09
    3    2   -0.85402747E-02 -0.71596604E-10
    4    2   -0.85402733E-02  0.79167721E-09
    1    3   -0.85402721E-02 -0.93766329E-09
    2    3   -0.85402712E-02 -0.31270506E-09
    3    3    0.73784754E-02  0.38338940E-09
    4    3   -0.85402742E-02 -0.10222957E-09
    1    4   -0.85402732E-02 -0.12262535E-08
    2    4   -0.85402712E-02  0.92166721E-09
    3    4   -0.85402705E-02  0.46481609E-09
    4    4    0.73784759E-02 -0.70178199E-09

   -1    0   -1
    1    1   -0.88754369E-04  0.12330500E-08
    2    1    0.13490015E-01 -0.91065185E-09
    3    1   -0.85402740E-02  0.35241651E-09
    4    1    0.13490019E-01  0.78156354E-09
    1    2    0.10031798E+00  0.10719949E-09
    2    2   -0.12934223E-01 -0.39693139E-09
    3    2    0.30209093E-01 -0.28448492E-09
    4    2   -0.21538151E-01  0.99364019E-09
    1    3   -0.38176759E-01  0.20344753E-09
    2    3   -0.19883010E-02  0.11397109E-08
    3    3    0.31513779E-02 -0.75520813E-09
    4    3   -0.19883014E-02  0.11579876E-09
    1    4    0.10031797E+00 -0.25285379E-09
    2    4   -0.21538150E-01  0.21032980E-09
    3    4    0.30209097E-01  0.26993662E-09
    4    4   -0.12934223E-01 -0.80903375E-10

   -1    0    0
    1    1    0.90072607E+00 -0.15811713E-10
    2    1    0.10031797E+00 -0.25396437E-08
    3    1    0.10031797E+00 -0.13828879E-08
    4    1   -0.25466097E+00 -0.57601919E-09
    1    2   -0.61523841E+00  0.35362186E-08
    2    2   -0.24443525E+00 -0.16297076E-08
    3    2    0.32232677E-01  0.13291839E-08
    4    2    0.10031798E+00 -0.14121412E-08
    1    3   -0.61523841E+00 -0.51160893E-09
    2    3    0.32232678E-01 -0.12215098E-08
    3    3   -0.24443524E+00  0.56268107E-09
    4    3    0.10031797E+00  0.17993320E-08
    1    4   -0.20896483E+01 -0.36432658E-08
    2    4   -0.61523840E+00  0.21121101E-08
    3    4   -0.61523840E+00  0.16874242E-08
    4    4    0.90072607E+00  0.10828579E-08

   -1    0    1
    1    1   -0.24443525E+00  0.42108788E-09
    2    1   -0.61523840E+00  0.21214417E-09
    3    1    0.32232676E-01 -0.12522494E-08
    4    1    0.10031797E+00  0.47560726E-10
    1    2    0.10031798E+00 -0.63715336E-09
    2    2    0.90072607E+00 -0.40959666E-09
    3    2    0.10031797E+00  0.90720532E-09
    4    2   -0.25466097E+00 -0.18273382E-08
    1    3    0.32232677E-01 -0.15332363E-08
    2    3   -0.61523841E+00  0.33552766E-08
    3    3   -0.24443525E+00  0.97553574E-09
    4    3    0.10031798E+00 -0.57627709E-09
    1    4   -0.61523841E+00 -0.15774083E-08
    2    4   -0.20896483E+01 -0.35696991E-08
    3    4   -0.61523840E+00 -0.97922269E-09
    4    4    0.90072608E+00 -0.98703335E-09

   -1    0    2
    1    1   -0.12934222E-01  0.74097736E-09
    2    1    0.10031797E+00  0.12657102E-08
    3    1    0.30209095E-01 -0.73884675E-09
    4    1   -0.21538150E-01  0.19312330E-08
    1    2    0.13490019E-01 -0.11682548E-08
    2    2   -0.88755858E-04 -0.77510720E-10
    3    2   -0.85402745E-02 -0.16308531E-09
    4    2    0.13490016E-01  0.21577101E-08
    1    3   -0.19883000E-02 -0.14103519E-08
    2    3   -0.38176759E-01  0.13284307E-08
    3    3    0.31513786E-02  0.20521146E-09
    4    3   -0.19883013E-02 -0.14966653E-08
    1    4   -0.21538151E-01 -0.44797745E-09
    2    4    0.10031798E+00  0.76351243E-09
    3    4    0.30209098E-01 -0.62747565E-09
    4    4   -0.12934222E-01 -0.86870713E-09

   -1    1   -2
    1    1    0.15749601E-01 -0.38991902E-09
    2    1    0.15396615E-02  0.14141114E-08
    3    1   -0.19883020E-02  0.14601848E-08
    4    1   -0.79546410E-02  0.47977424E-09
    1    2    0.15396635E-02 -0.59776970E-09
    2    2    0.15749602E-01 -0.13861852E-09
    3    2   -0.19883001E-02 -0.11379401E-08
    4    2   -0.79546415E-02  0.80287570E-09
    1    3   -0.79546405E-02  0.13634127E-08
    2    3   -0.79546417E-02  0.11911028E-09
    3    3    0.12409575E-01 -0.20848415E-09
    4    3   -0.35022560E-02 -0.21324639E-09
    1    4   -0.19883004E-02 -0.86630014E-09
    2    4   -0.19883014E-02  0.12403312E-08
    3    4   -0.40231871E-02  0.54852126E-11
    4    4    0.12409574E-01  0.73699812E-09

   -1    1   -1
    1    1    0.15321719E-01  0.63720261E-09
    2    1    0.15396627E-02  0.58844621E-09
    3    1   -0.38176760E-01  0.76600172E-09
    4    1    0.15396634E-02 -0.14870367E-09
    1    2    0.32232675E-01  0.19193592E-08
    2    2    0.15321719E-01 -0.10609995E-08
    3    2    0.32232677E-01 -0.22762081E-09
    4    2   -0.38176759E-01  0.72780990E-09
    1    3   -0.38176757E-01  0.85030469E-09
    2    3    0.15396614E-02 -0.13640933E-09
    3    3    0.15321720E-01 -0.61840810E-11
    4    3    0.15396613E-02  0.60242654E-09
    1    4    0.32232676E-01 -0.33054494E-08
    2    4   -0.38176759E-01  0.49989836E-09
    3    4    0.32232678E-01 -0.22797990E-08
    4    4    0.15321719E-01  0.43002277E-09

   -1    1    0
    1    1   -0.24443525E+00 -0.10584446E-09
    2    1    0.32232677E-01 -0.22903659E-08
    3    1   -0.61523840E+00  0.10986247E-08
    4    1    0.10031797E+00  0.11370508E-08
    1    2    0.32232677E-01 -0.22511227E-08
    2    2   -0.24443525E+00  0.51743232E-09
    3    2   -0.61523840E+00  0.21271528E-08
    4    2    0.10031798E+00 -0.13879878E-08
    1    3    0.10031798E+00 -0.49682349E-09
    2    3    0.10031797E+00 -0.16519202E-09
    3    3    0.90072607E+00  0.13294506E-10
    4    3   -0.25466097E+00 -0.21484812E-08
    1    4   -0.61523841E+00 -0.19541403E-08
    2    4   -0.61523841E+00  0.39027821E-08
    3    4   -0.20896483E+01 -0.24447676E-08
    4    4    0.90072607E+00 -0.42490456E-09

   -1    1    1
    1    1    0.15321720E-01 -0.10176318E-08
    2    1    0.32232676E-01  0.11268409E-08
    3    1    0.32232676E-01  0.92931120E-09
    4    1   -0.38176757E-01  0.70500183E-09
    1    2    0.15396631E-02 -0.13178359E-08
    2    2    0.15321719E-01  0.15000343E-09
    3    2   -0.38176758E-01 -0.24330492E-09
    4    2    0.15396616E-02  0.67504334E-09
    1    3    0.15396649E-02 -0.10652810E-08
    2    3   -0.38176760E-01 -0.86560065E-11
    3    3    0.15321719E-01  0.34568842E-09
    4    3    0.15396622E-02 -0.11777041E-08
    1    4   -0.38176758E-01 -0.19089402E-08
    2    4    0.32232677E-01  0.15533995E-08
    3    4    0.32232679E-01 -0.81737929E-09
    4    4    0.15321719E-01  0.52191620E-09

   -1    1    2
    1    1    0.15749601E-01 -0.38991897E-09
    2    1    0.15396615E-02  0.14141114E-08
    3    1   -0.19883020E-02  0.14601849E-08
    4    1   -0.79546410E-02  0.47977425E-09
    1    2    0.15396635E-02 -0.59776972E-09
    2    2    0.15749602E-01 -0.13861846E-09
    3    2   -0.19883001E-02 -0.11379401E-08
    4    2   -0.79546415E-02  0.80287574E-09
    1    3   -0.79546405E-02  0.13634127E-08
    2    3   -0.79546417E-02  0.11911027E-09
    3    3    0.12409575E-01 -0.20848430E-09
    4    3   -0.35022560E-02 -0.21324630E-09
    1    4   -0.19883004E-02 -0.86630008E-09
    2    4   -0.19883014E-02  0.12403313E-08
    3    4   -0.40231871E-02  0.54854042E-11
    4    4    0.12409574E-01  0.73699804E-09

   -1    2   -2
    1    1    0.12409574E-01 -0.14423654E-09
    2    1   -0.79546405E-02  0.72376354E-09
    3    1   -0.79546419E-02 -0.10967010E-08
    4    1   -0.35022557E-02 -0.61466093E-09
    1    2   -0.19883026E-02  0.16719433E-08
    2    2    0.15749601E-01 -0.29534200E-09
    3    2    0.15396630E-02 -0.23909641E-09
    4    2   -0.79546412E-02  0.72136354E-09
    1    3   -0.19883008E-02  0.77633922E-09
    2    3    0.15396627E-02 -0.56690680E-09
    3    3    0.15749602E-01 -0.37822301E-10
    4    3   -0.79546423E-02  0.48214546E-09
    1    4   -0.40231869E-02 -0.67899032E-09
    2    4   -0.19883025E-02 -0.14819256E-08
    3    4   -0.19882994E-02 -0.15090647E-09
    4    4    0.12409575E-01  0.47741988E-09

   -1    2   -1
    1    1    0.31513785E-02  0.25598313E-09
    2    1   -0.19883009E-02 -0.11624430E-08
    3    1   -0.38176756E-01  0.73352643E-10
    4    1   -0.19883008E-02 -0.48080056E-09
    1    2    0.30209098E-01 -0.10976680E-08
    2    2   -0.12934223E-01  0.18227421E-09
    3    2    0.10031798E+00 -0.17210294E-08
    4    2   -0.21538152E-01  0.92435771E-09
    1    3   -0.85402724E-02  0.80022427E-09
    2    3    0.13490018E-01 -0.35601807E-09
    3    3   -0.88754814E-04  0.39223774E-09
    4    3    0.13490016E-01 -0.47511545E-09
    1    4    0.30209093E-01 -0.49193676E-09
    2    4   -0.21538150E-01  0.18590170E-09
    3    4    0.10031798E+00 -0.17875204E-08
    4    4   -0.12934222E-01 -0.83047959E-09

   -1    2    0
    1    1   -0.12934223E-01  0.70873779E-10
    2    1    0.30209093E-01 -0.95541076E-09
    3    1    0.10031797E+00  0.21854356E-09
    4    1   -0.21538150E-01  0.17004437E-08
    1    2   -0.19882998E-02  0.22056564E-09
    2    2    0.31513782E-02  0.32050709E-09
    3    2   -0.38176757E-01  0.15025755E-08
    4    2   -0.19883000E-02 -0.14785175E-08
    1    3    0.13490019E-01 -0.96595954E-09
    2    3   -0.85402700E-02 -0.12722108E-08
    3    3   -0.88754791E-04 -0.38708065E-09
    4    3    0.13490015E-01 -0.94773148E-09
    1    4   -0.21538152E-01 -0.16371640E-08
    2    4    0.30209096E-01  0.23535700E-08
    3    4    0.10031798E+00  0.15210068E-08
    4    4   -0.12934222E-01 -0.43376969E-11

   -1    2    1
    1    1    0.15749602E-01 -0.54436028E-09
    2    1   -0.19883023E-02  0.48861594E-09
    3    1    0.15396614E-02  0.14323549E-09
    4    1   -0.79546415E-02 -0.16936029E-10
    1    2   -0.79546417E-02  0.35534208E-09
    2    2    0.12409574E-01  0.39899940E-09
    3    2   -0.79546401E-02 -0.22164246E-10
    4    2   -0.35022553E-02  0.28488802E-10
    1    3    0.15396646E-02  0.12888099E-08
    2    3   -0.19883002E-02 -0.62489572E-09
    3    3    0.15749602E-01 -0.26874100E-09
    4    3   -0.79546415E-02  0.17080180E-09
    1    4   -0.19882995E-02 -0.13691866E-08
    2    4   -0.40231880E-02 -0.11847584E-09
    3    4   -0.19883020E-02  0.18640200E-08
    4    4    0.12409574E-01  0.41408203E-09

   -1    3   -1
    1    1    0.73784761E-02  0.49930499E-09
    2    1   -0.85402740E-02  0.33799558E-09
    3    1   -0.85402719E-02  0.53171348E-09
    4    1   -0.85402705E-02  0.63090154E-09
    1    2   -0.85402700E-02 -0.12709103E-08
    2    2    0.73784758E-02 -0.18088070E-09
    3    2   -0.85402747E-02 -0.71596631E-10
    4    2   -0.85402733E-02  0.79167721E-09
    1    3   -0.85402721E-02 -0.93766324E-09
    2    3   -0.85402712E-02 -0.31270496E-09
    3    3    0.73784754E-02  0.38338943E-09
    4    3   -0.85402742E-02 -0.10222953E-09
    1    4   -0.85402732E-02 -0.12262535E-08
    2    4   -0.85402712E-02  0.92166726E-09
    3    4   -0.85402705E-02  0.46481605E-09
    4    4    0.73784759E-02 -0.70178202E-09

    0   -2    0
    1    1    0.17684994E+00  0.59207350E-15
    2    1   -0.21538151E-01 -0.65999615E-09
    3    1   -0.25466097E+00  0.17330537E-08
    4    1   -0.21538149E-01  0.27984057E-09
    1    2   -0.21538151E-01  0.65999584E-09
    2    2   -0.17298469E-01  0.47928334E-15
    3    2   -0.21538149E-01  0.11421287E-08
    4    2   -0.40231871E-02 -0.98532181E-09
    1    3   -0.25466097E+00 -0.17330542E-08
    2    3   -0.21538149E-01 -0.11421290E-08
    3    3    0.17684994E+00  0.55859881E-15
    4    3   -0.21538152E-01  0.17784797E-09
    1    4   -0.21538149E-01 -0.27984088E-09
    2    4   -0.40231871E-02  0.98532156E-09
    3    4   -0.21538152E-01 -0.17784831E-09
    4    4   -0.17298467E-01  0.46308796E-15

    0   -2    1
    1    1   -0.12934222E-01  0.12791268E-09
    2    1   -0.21538150E-01  0.58384465E-09
    3    1    0.13490017E-01  0.15138467E-08
    4    1   -0.19883015E-02 -0.12495315E-08
    1    2   -0.21538152E-01  0.65952042E-09
    2    2   -0.12934222E-01 -0.73609277E-09
    3    2    0.13490017E-01 -0.24017166E-09
    4    2   -0.19882995E-02  0.15607954E-08
    1    3    0.10031798E+00  0.13824534E-08
    2    3    0.10031797E+00  0.16570847E-08
    3    3   -0.88755544E-04 -0.30283909E-09
    4    3   -0.38176759E-01 -0.14549500E-10
    1    4    0.30209099E-01  0.27013525E-09
    2    4    0.30209094E-01 -0.76212769E-09
    3    4   -0.85402758E-02  0.19172156E-09
    4    4    0.31513781E-02  0.91101607E-09

    0   -2    2
    1    1   -0.17298468E-01 -0.18160387E-17
    2    1   -0.21538150E-01  0.11776093E-08
    3    1   -0.21538149E-01 -0.61184426E-09
    4    1   -0.40231876E-02 -0.19865724E-08
    1    2   -0.21538150E-01 -0.11776093E-08
    2    2    0.17684994E+00  0.20698327E-16
    3    2   -0.25466097E+00  0.57874190E-09
    4    2   -0.21538152E-01  0.14574118E-08
    1    3   -0.21538149E-01  0.61184428E-09
    2    3   -0.25466097E+00 -0.57874191E-09
    3    3    0.17684994E+00 -0.36907202E-16
    4    3   -0.21538153E-01  0.13850870E-08
    1    4   -0.40231876E-02  0.19865725E-08
    2    4   -0.21538152E-01 -0.14574118E-08
    3    4   -0.21538153E-01 -0.13850869E-08
    4    4   -0.17298468E-01 -0.24272470E-16

    0   -1   -1
    1    1   -0.88753990E-04 -0.48020448E-09
    2    1    0.13490017E-01  0.12087451E-08
    3    1    0.13490018E-01  0.86295670E-09
    4    1   -0.85402710E-02 -0.33918566E-09
    1    2    0.10031798E+00 -0.14325831E-08
    2    2   -0.12934223E-01  0.13134952E-08
    3    2   -0.21538153E-01  0.53668350E-11
    4    2    0.30209097E-01  0.24859374E-08
    1    3    0.10031798E+00 -0.60960805E-09
    2    3   -0.21538150E-01 -0.34682300E-09
    3    3   -0.12934223E-01  0.12953675E-09
    4    3    0.30209095E-01 -0.18521812E-09
    1    4   -0.38176757E-01 -0.12717521E-09
    2    4   -0.19883007E-02  0.18227048E-09
    3    4   -0.19883010E-02  0.79925377E-09
    4    4    0.31513779E-02 -0.96286691E-09

    0   -1    0
    1    1    0.90072608E+00 -0.10199815E-08
    2    1    0.10031797E+00 -0.22532487E-09
    3    1   -0.25466097E+00  0.27051022E-08
    4    1    0.10031798E+00 -0.18869558E-08
    1    2   -0.61523841E+00  0.29587898E-08
    2    2   -0.24443525E+00  0.87175045E-10
    3    2    0.10031798E+00 -0.49217325E-09
    4    2    0.32232677E-01  0.24190791E-08
    1    3   -0.20896483E+01  0.98989975E-09
    2    3   -0.61523840E+00 -0.25202366E-08
    3    3    0.90072607E+00  0.61374961E-09
    4    3   -0.61523841E+00  0.20648521E-08
    1    4   -0.61523840E+00 -0.90232719E-09
    2    4    0.32232675E-01  0.26993681E-08
    3    4    0.10031797E+00  0.89959817E-10
    4    4   -0.24443525E+00  0.31903843E-09

    0   -1    1
    1    1   -0.24443525E+00 -0.31726638E-09
    2    1   -0.61523840E+00  0.11272122E-08
    3    1    0.10031797E+00 -0.12324076E-08
    4    1    0.32232676E-01 -0.39351615E-08
    1    2    0.10031798E+00 -0.87196736E-10
    2    2    0.90072607E+00 -0.25773858E-09
    3    2   -0.25466097E+00 -0.74410243E-09
    4    2    0.10031798E+00  0.25581804E-08
    1    3   -0.61523840E+00  0.35021876E-08
    2    3   -0.20896483E+01  0.59981654E-09
    3    3    0.90072607E+00  0.14225345E-08
    4    3   -0.61523841E+00  0.23823026E-08
    1    4    0.32232676E-01  0.50030591E-09
    2    4   -0.61523841E+00 -0.53935740E-08
    3    4    0.10031797E+00  0.19802951E-09
    4    4   -0.24443525E+00 -0.84752958E-09

    0   -1    2
    1    1   -0.12934222E-01 -0.13388768E-09
    2    1    0.10031797E+00 -0.25994590E-08
    3    1   -0.21538151E-01 -0.11983343E-08
    4    1    0.30209097E-01  0.56111637E-09
    1    2    0.13490019E-01 -0.10964696E-08
    2    2   -0.88754639E-04  0.66213215E-09
    3    2    0.13490015E-01 -0.72592851E-09
    4    2   -0.85402736E-02  0.12066151E-08
    1    3   -0.21538152E-01  0.65856515E-10
    2    3    0.10031798E+00 -0.14251781E-08
    3    3   -0.12934222E-01  0.88319435E-10
    4    3    0.30209093E-01  0.84313960E-09
    1    4   -0.19883019E-02  0.10960218E-08
    2    4   -0.38176759E-01 -0.13201504E-08
    3    4   -0.19883009E-02  0.35404087E-09
    4    4    0.31513772E-02 -0.61650979E-09

    0    0   -2
    1    1    0.17684994E+00  0.61058625E-15
    2    1   -0.25466097E+00  0.15488936E-08
    3    1   -0.21538152E-01  0.85265853E-09
    4    1   -0.21538149E-01  0.62771238E-09
    1    2   -0.25466097E+00 -0.15488940E-08
    2    2    0.17684994E+00  0.56559186E-15
    3    2   -0.21538153E-01 -0.28993474E-09
    4    2   -0.21538152E-01  0.93275121E-09
    1    3   -0.21538152E-01 -0.85265887E-09
    2    3   -0.21538153E-01  0.28993449E-09
    3    3   -0.17298470E-01  0.52265137E-15
    4    3   -0.40231861E-02  0.62310304E-09
    1    4   -0.21538149E-01 -0.62771265E-09
    2    4   -0.21538152E-01 -0.93275150E-09
    3    4   -0.40231861E-02 -0.62310330E-09
    4    4   -0.17298467E-01  0.50716099E-15

    0    0   -1
    1    1    0.90072607E+00 -0.13385043E-08
    2    1   -0.25466097E+00  0.21054747E-08
    3    1    0.10031797E+00  0.14164242E-08
    4    1    0.10031798E+00 -0.25432803E-08
    1    2   -0.20896483E+01 -0.56952289E-09
    2    2    0.90072607E+00  0.16523644E-09
    3    2   -0.61523841E+00 -0.27213062E-08
    4    2   -0.61523841E+00  0.68983175E-08
    1    3   -0.61523841E+00 -0.49266376E-10
    2    3    0.10031797E+00  0.31651741E-09
    3    3   -0.24443525E+00 -0.92608116E-09
    4    3    0.32232679E-01  0.17504015E-08
    1    4   -0.61523840E+00  0.62778215E-09
    2    4    0.10031797E+00  0.51665537E-09
    3    4    0.32232675E-01 -0.35383019E-09
    4    4   -0.24443525E+00  0.20993558E-08

    0    0    0
    1    1    0.83718321E+01 -0.22768246E-17
    2    1   -0.20896483E+01 -0.12347358E-08
    3    1   -0.20896483E+01  0.73487886E-09
    4    1   -0.20896483E+01 -0.21391827E-08
    1    2   -0.20896483E+01  0.12347358E-08
    2    2    0.83718321E+01  0.62070574E-17
    3    2   -0.20896483E+01  0.66361663E-09
    4    2   -0.20896483E+01 -0.97928316E-09
    1    3   -0.20896483E+01 -0.73487886E-09
    2    3   -0.20896483E+01 -0.66361663E-09
    3    3    0.83718321E+01  0.94055068E-17
    4    3   -0.20896483E+01  0.17280644E-08
    1    4   -0.20896483E+01  0.21391827E-08
    2    4   -0.20896483E+01  0.97928316E-09
    3    4   -0.20896483E+01 -0.17280644E-08
    4    4    0.83718321E+01  0.41809440E-16

    0    0    1
    1    1    0.90072607E+00  0.13385043E-08
    2    1   -0.20896483E+01  0.56952289E-09
    3    1   -0.61523841E+00  0.49266376E-10
    4    1   -0.61523840E+00 -0.62778215E-09
    1    2   -0.25466097E+00 -0.21054747E-08
    2    2    0.90072607E+00 -0.16523644E-09
    3    2    0.10031797E+00 -0.31651741E-09
    4    2    0.10031797E+00 -0.51665537E-09
    1    3    0.10031797E+00 -0.14164242E-08
    2    3   -0.61523841E+00  0.27213062E-08
    3    3   -0.24443525E+00  0.92608116E-09
    4    3    0.32232675E-01  0.35383019E-09
    1    4    0.10031798E+00  0.25432803E-08
    2    4   -0.61523841E+00 -0.68983175E-08
    3    4    0.32232679E-01 -0.17504015E-08
    4    4   -0.24443525E+00 -0.20993558E-08

    0    0    2
    1    1    0.17684994E+00 -0.57030814E-15
    2    1   -0.25466097E+00  0.15488940E-08
    3    1   -0.21538152E-01  0.85265887E-09
    4    1   -0.21538149E-01  0.62771265E-09
    1    2   -0.25466097E+00 -0.15488936E-08
    2    2    0.17684994E+00 -0.61530253E-15
    3    2   -0.21538153E-01 -0.28993449E-09
    4    2   -0.21538152E-01  0.93275150E-09
    1    3   -0.21538152E-01 -0.85265853E-09
    2    3   -0.21538153E-01  0.28993474E-09
    3    3   -0.17298470E-01 -0.44908836E-15
    4    3   -0.40231861E-02  0.62310330E-09
    1    4   -0.21538149E-01 -0.62771238E-09
    2    4   -0.21538152E-01 -0.93275121E-09
    3    4   -0.40231861E-02 -0.62310304E-09
    4    4   -0.17298467E-01 -0.46457874E-15

    0    1   -2
    1    1   -0.12934222E-01  0.13388766E-09
    2    1    0.13490019E-01  0.10964696E-08
    3    1   -0.21538152E-01 -0.65856515E-10
    4    1   -0.19883019E-02 -0.10960218E-08
    1    2    0.10031797E+00  0.25994590E-08
    2    2   -0.88754639E-04 -0.66213227E-09
    3    2    0.10031798E+00  0.14251781E-08
    4    2   -0.38176759E-01  0.13201504E-08
    1    3   -0.21538151E-01  0.11983343E-08
    2    3    0.13490015E-01  0.72592851E-09
    3    3   -0.12934222E-01 -0.88319380E-10
    4    3   -0.19883009E-02 -0.35404087E-09
    1    4    0.30209097E-01 -0.56111637E-09
    2    4   -0.85402736E-02 -0.12066151E-08
    3    4    0.30209093E-01 -0.84313960E-09
    4    4    0.31513772E-02  0.61650968E-09

    0    1   -1
    1    1   -0.24443525E+00  0.31726652E-09
    2    1    0.10031798E+00  0.87196736E-10
    3    1   -0.61523840E+00 -0.35021876E-08
    4    1    0.32232676E-01 -0.50030591E-09
    1    2   -0.61523840E+00 -0.11272122E-08
    2    2    0.90072607E+00  0.25773850E-09
    3    2   -0.20896483E+01 -0.59981654E-09
    4    2   -0.61523841E+00  0.53935740E-08
    1    3    0.10031797E+00  0.12324076E-08
    2    3   -0.25466097E+00  0.74410243E-09
    3    3    0.90072607E+00 -0.14225345E-08
    4    3    0.10031797E+00 -0.19802951E-09
    1    4    0.32232676E-01  0.39351615E-08
    2    4    0.10031798E+00 -0.25581804E-08
    3    4   -0.61523841E+00 -0.23823026E-08
    4    4   -0.24443525E+00  0.84752954E-09

    0    1    0
    1    1    0.90072608E+00  0.10199815E-08
    2    1   -0.61523841E+00 -0.29587898E-08
    3    1   -0.20896483E+01 -0.98989975E-09
    4    1   -0.61523840E+00  0.90232719E-09
    1    2    0.10031797E+00  0.22532487E-09
    2    2   -0.24443525E+00 -0.87175073E-10
    3    2   -0.61523840E+00  0.25202366E-08
    4    2    0.32232675E-01 -0.26993681E-08
    1    3   -0.25466097E+00 -0.27051022E-08
    2    3    0.10031798E+00  0.49217325E-09
    3    3    0.90072607E+00 -0.61374972E-09
    4    3    0.10031797E+00 -0.89959817E-10
    1    4    0.10031798E+00  0.18869558E-08
    2    4    0.32232677E-01 -0.24190791E-08
    3    4   -0.61523841E+00 -0.20648521E-08
    4    4   -0.24443525E+00 -0.31903843E-09

    0    1    1
    1    1   -0.88753990E-04  0.48020445E-09
    2    1    0.10031798E+00  0.14325831E-08
    3    1    0.10031798E+00  0.60960805E-09
    4    1   -0.38176757E-01  0.12717521E-09
    1    2    0.13490017E-01 -0.12087451E-08
    2    2   -0.12934223E-01 -0.13134952E-08
    3    2   -0.21538150E-01  0.34682300E-09
    4    2   -0.19883007E-02 -0.18227048E-09
    1    3    0.13490018E-01 -0.86295670E-09
    2    3   -0.21538153E-01 -0.53668350E-11
    3    3   -0.12934223E-01 -0.12953678E-09
    4    3   -0.19883010E-02 -0.79925377E-09
    1    4   -0.85402710E-02  0.33918566E-09
    2    4    0.30209097E-01 -0.24859374E-08
    3    4    0.30209095E-01  0.18521812E-09
    4    4    0.31513779E-02  0.96286681E-09

    0    2   -2
    1    1   -0.17298468E-01 -0.18160386E-17
    2    1   -0.21538150E-01  0.11776093E-08
    3    1   -0.21538149E-01 -0.61184428E-09
    4    1   -0.40231876E-02 -0.19865725E-08
    1    2   -0.21538150E-01 -0.11776093E-08
    2    2    0.17684994E+00 -0.62242279E-17
    3    2   -0.25466097E+00  0.57874191E-09
    4    2   -0.21538152E-01  0.14574118E-08
    1    3   -0.21538149E-01  0.61184426E-09
    2    3   -0.25466097E+00 -0.57874190E-09
    3    3    0.17684994E+00 -0.99846477E-17
    4    3   -0.21538153E-01  0.13850869E-08
    1    4   -0.40231876E-02  0.19865724E-08
    2    4   -0.21538152E-01 -0.14574118E-08
    3    4   -0.21538153E-01 -0.13850870E-08
    4    4   -0.17298468E-01 -0.24272470E-16

    0    2   -1
    1    1   -0.12934222E-01 -0.12791265E-09
    2    1   -0.21538152E-01 -0.65952042E-09
    3    1    0.10031798E+00 -0.13824534E-08
    4    1    0.30209099E-01 -0.27013525E-09
    1    2   -0.21538150E-01 -0.58384465E-09
    2    2   -0.12934222E-01  0.73609271E-09
    3    2    0.10031797E+00 -0.16570847E-08
    4    2    0.30209094E-01  0.76212769E-09
    1    3    0.13490017E-01 -0.15138467E-08
    2    3    0.13490017E-01  0.24017166E-09
    3    3   -0.88755544E-04  0.30283898E-09
    4    3   -0.85402758E-02 -0.19172156E-09
    1    4   -0.19883015E-02  0.12495315E-08
    2    4   -0.19882995E-02 -0.15607954E-08
    3    4   -0.38176759E-01  0.14549500E-10
    4    4    0.31513781E-02 -0.91101601E-09

    0    2    0
    1    1    0.17684994E+00 -0.58882089E-15
    2    1   -0.21538151E-01 -0.65999584E-09
    3    1   -0.25466097E+00  0.17330542E-08
    4    1   -0.21538149E-01  0.27984088E-09
    1    2   -0.21538151E-01  0.65999615E-09
    2    2   -0.17298469E-01 -0.49245639E-15
    3    2   -0.21538149E-01  0.11421290E-08
    4    2   -0.40231871E-02 -0.98532156E-09
    1    3   -0.25466097E+00 -0.17330537E-08
    2    3   -0.21538149E-01 -0.11421287E-08
    3    3    0.17684994E+00 -0.62229558E-15
    4    3   -0.21538152E-01  0.17784831E-09
    1    4   -0.21538149E-01 -0.27984057E-09
    2    4   -0.40231871E-02  0.98532181E-09
    3    4   -0.21538152E-01 -0.17784797E-09
    4    4   -0.17298467E-01 -0.50865177E-15

    1   -3    1
    1    1    0.73784761E-02 -0.49930496E-09
    2    1   -0.85402700E-02  0.12709103E-08
    3    1   -0.85402721E-02  0.93766324E-09
    4    1   -0.85402732E-02  0.12262535E-08
    1    2   -0.85402740E-02 -0.33799558E-09
    2    2    0.73784758E-02  0.18088064E-09
    3    2   -0.85402712E-02  0.31270496E-09
    4    2   -0.85402712E-02 -0.92166726E-09
    1    3   -0.85402719E-02 -0.53171348E-09
    2    3   -0.85402747E-02  0.71596631E-10
    3    3    0.73784754E-02 -0.38338943E-09
    4    3   -0.85402705E-02 -0.46481605E-09
    1    4   -0.85402705E-02 -0.63090154E-09
    2    4   -0.85402733E-02 -0.79167721E-09
    3    4   -0.85402742E-02  0.10222953E-09
    4    4    0.73784759E-02  0.70178197E-09

    1   -2   -1
    1    1    0.15749602E-01  0.54436036E-09
    2    1   -0.79546417E-02 -0.35534208E-09
    3    1    0.15396646E-02 -0.12888099E-08
    4    1   -0.19882995E-02  0.13691866E-08
    1    2   -0.19883023E-02 -0.48861594E-09
    2    2    0.12409574E-01 -0.39899934E-09
    3    2   -0.19883002E-02  0.62489572E-09
    4    2   -0.40231880E-02  0.11847584E-09
    1    3    0.15396614E-02 -0.14323549E-09
    2    3   -0.79546401E-02  0.22164246E-10
    3    3    0.15749602E-01  0.26874100E-09
    4    3   -0.19883020E-02 -0.18640200E-08
    1    4   -0.79546415E-02  0.16936029E-10
    2    4   -0.35022553E-02 -0.28488802E-10
    3    4   -0.79546415E-02 -0.17080180E-09
    4    4    0.12409574E-01 -0.41408207E-09

    1   -2    0
    1    1   -0.12934223E-01 -0.70873668E-10
    2    1   -0.19882998E-02 -0.22056564E-09
    3    1    0.13490019E-01  0.96595954E-09
    4    1   -0.21538152E-01  0.16371640E-08
    1    2    0.30209093E-01  0.95541076E-09
    2    2    0.31513782E-02 -0.32050707E-09
    3    2   -0.85402700E-02  0.12722108E-08
    4    2    0.30209096E-01 -0.23535700E-08
    1    3    0.10031797E+00 -0.21854356E-09
    2    3   -0.38176757E-01 -0.15025755E-08
    3    3   -0.88754791E-04  0.38708070E-09
    4    3    0.10031798E+00 -0.15210068E-08
    1    4   -0.21538150E-01 -0.17004437E-08
    2    4   -0.19883000E-02  0.14785175E-08
    3    4    0.13490015E-01  0.94773148E-09
    4    4   -0.12934222E-01  0.43376969E-11

    1   -2    1
    1    1    0.31513785E-02 -0.25598310E-09
    2    1    0.30209098E-01  0.10976680E-08
    3    1   -0.85402724E-02 -0.80022427E-09
    4    1    0.30209093E-01  0.49193676E-09
    1    2   -0.19883009E-02  0.11624430E-08
    2    2   -0.12934223E-01 -0.18227424E-09
    3    2    0.13490018E-01  0.35601807E-09
    4    2   -0.21538150E-01 -0.18590170E-09
    1    3   -0.38176756E-01 -0.73352643E-10
    2    3    0.10031798E+00  0.17210294E-08
    3    3   -0.88754814E-04 -0.39223776E-09
    4    3    0.10031798E+00  0.17875204E-08
    1    4   -0.19883008E-02  0.48080056E-09
    2    4   -0.21538152E-01 -0.92435771E-09
    3    4    0.13490016E-01  0.47511545E-09
    4    4   -0.12934222E-01  0.83047959E-09

    1   -2    2
    1    1    0.12409574E-01  0.14423648E-09
    2    1   -0.19883026E-02 -0.16719433E-08
    3    1   -0.19883008E-02 -0.77633922E-09
    4    1   -0.40231869E-02  0.67899032E-09
    1    2   -0.79546405E-02 -0.72376354E-09
    2    2    0.15749601E-01  0.29534206E-09
    3    2    0.15396627E-02  0.56690680E-09
    4    2   -0.19883025E-02  0.14819256E-08
    1    3   -0.79546419E-02  0.10967010E-08
    2    3    0.15396630E-02  0.23909641E-09
    3    3    0.15749602E-01  0.37822356E-10
    4    3   -0.19882994E-02  0.15090647E-09
    1    4   -0.35022557E-02  0.61466093E-09
    2    4   -0.79546412E-02 -0.72136354E-09
    3    4   -0.79546423E-02 -0.48214546E-09
    4    4    0.12409575E-01 -0.47741988E-09

    1   -1   -2
    1    1    0.15749601E-01  0.38991905E-09
    2    1    0.15396635E-02  0.59776972E-09
    3    1   -0.79546405E-02 -0.13634127E-08
    4    1   -0.19883004E-02  0.86630008E-09
    1    2    0.15396615E-02 -0.14141114E-08
    2    2    0.15749602E-01  0.13861849E-09
    3    2   -0.79546417E-02 -0.11911027E-09
    4    2   -0.19883014E-02 -0.12403313E-08
    1    3   -0.19883020E-02 -0.14601849E-08
    2    3   -0.19883001E-02  0.11379401E-08
    3    3    0.12409575E-01  0.20848441E-09
    4    3   -0.40231871E-02 -0.54854042E-11
    1    4   -0.79546410E-02 -0.47977425E-09
    2    4   -0.79546415E-02 -0.80287574E-09
    3    4   -0.35022560E-02  0.21324630E-09
    4    4    0.12409574E-01 -0.73699803E-09

    1   -1   -1
    1    1    0.15321720E-01  0.10176318E-08
    2    1    0.15396631E-02  0.13178359E-08
    3    1    0.15396649E-02  0.10652810E-08
    4    1   -0.38176758E-01  0.19089402E-08
    1    2    0.32232676E-01 -0.11268409E-08
    2    2    0.15321719E-01 -0.15000343E-09
    3    2   -0.38176760E-01  0.86560065E-11
    4    2    0.32232677E-01 -0.15533995E-08
    1    3    0.32232676E-01 -0.92931120E-09
    2    3   -0.38176758E-01  0.24330492E-09
    3    3    0.15321719E-01 -0.34568831E-09
    4    3    0.32232679E-01  0.81737929E-09
    1    4   -0.38176757E-01 -0.70500183E-09
    2    4    0.15396616E-02 -0.67504334E-09
    3    4    0.15396622E-02  0.11777041E-08
    4    4    0.15321719E-01 -0.52191615E-09

    1   -1    0
    1    1   -0.24443525E+00  0.10584440E-09
    2    1    0.32232677E-01  0.22511227E-08
    3    1    0.10031798E+00  0.49682349E-09
    4    1   -0.61523841E+00  0.19541403E-08
    1    2    0.32232677E-01  0.22903659E-08
    2    2   -0.24443525E+00 -0.51743221E-09
    3    2    0.10031797E+00  0.16519202E-09
    4    2   -0.61523841E+00 -0.39027821E-08
    1    3   -0.61523840E+00 -0.10986247E-08
    2    3   -0.61523840E+00 -0.21271528E-08
    3    3    0.90072607E+00 -0.13294447E-10
    4    3   -0.20896483E+01  0.24447676E-08
    1    4    0.10031797E+00 -0.11370508E-08
    2    4    0.10031798E+00  0.13879878E-08
    3    4   -0.25466097E+00  0.21484812E-08
    4    4    0.90072607E+00  0.42490455E-09

    1   -1    1
    1    1    0.15321719E-01 -0.63720255E-09
    2    1    0.32232675E-01 -0.19193592E-08
    3    1   -0.38176757E-01 -0.85030469E-09
    4    1    0.32232676E-01  0.33054494E-08
    1    2    0.15396627E-02 -0.58844621E-09
    2    2    0.15321719E-01  0.10609995E-08
    3    2    0.15396614E-02  0.13640933E-09
    4    2   -0.38176759E-01 -0.49989836E-09
    1    3   -0.38176760E-01 -0.76600172E-09
    2    3    0.32232677E-01  0.22762081E-09
    3    3    0.15321720E-01  0.61840810E-11
    4    3    0.32232678E-01  0.22797990E-08
    1    4    0.15396634E-02  0.14870367E-09
    2    4   -0.38176759E-01 -0.72780990E-09
    3    4    0.15396613E-02 -0.60242654E-09
    4    4    0.15321719E-01 -0.43002271E-09

    1   -1    2
    1    1    0.15749601E-01  0.38991905E-09
    2    1    0.15396635E-02  0.59776970E-09
    3    1   -0.79546405E-02 -0.13634127E-08
    4    1   -0.19883004E-02  0.86630014E-09
    1    2    0.15396615E-02 -0.14141114E-08
    2    2    0.15749602E-01  0.13861849E-09
    3    2   -0.79546417E-02 -0.11911028E-09
    4    2   -0.19883014E-02 -0.12403312E-08
    1    3   -0.19883020E-02 -0.14601848E-08
    2    3   -0.19883001E-02  0.11379401E-08
    3    3    0.12409575E-01  0.20848420E-09
    4    3   -0.40231871E-02 -0.54852126E-11
    1    4   -0.79546410E-02 -0.47977424E-09
    2    4   -0.79546415E-02 -0.80287570E-09
    3    4   -0.35022560E-02  0.21324639E-09
    4    4    0.12409574E-01 -0.73699819E-09

    1    0   -2
    1    1   -0.12934222E-01 -0.74097736E-09
    2    1    0.13490019E-01  0.11682548E-08
    3    1   -0.19883000E-02  0.14103519E-08
    4    1   -0.21538151E-01  0.44797745E-09
    1    2    0.10031797E+00 -0.12657102E-08
    2    2   -0.88755858E-04  0.77510831E-10
    3    2   -0.38176759E-01 -0.13284307E-08
    4    2    0.10031798E+00 -0.76351243E-09
    1    3    0.30209095E-01  0.73884675E-09
    2    3   -0.85402745E-02  0.16308531E-09
    3    3    0.31513786E-02 -0.20521146E-09
    4    3    0.30209098E-01  0.62747565E-09
    1    4   -0.21538150E-01 -0.19312330E-08
    2    4    0.13490016E-01 -0.21577101E-08
    3    4   -0.19883013E-02  0.14966653E-08
    4    4   -0.12934222E-01  0.86870713E-09

    1    0   -1
    1    1   -0.24443525E+00 -0.42108789E-09
    2    1    0.10031798E+00  0.63715336E-09
    3    1    0.32232677E-01  0.15332363E-08
    4    1   -0.61523841E+00  0.15774083E-08
    1    2   -0.61523840E+00 -0.21214417E-09
    2    2    0.90072607E+00  0.40959666E-09
    3    2   -0.61523841E+00 -0.33552766E-08
    4    2   -0.20896483E+01  0.35696991E-08
    1    3    0.32232676E-01  0.12522494E-08
    2    3    0.10031797E+00 -0.90720532E-09
    3    3   -0.24443525E+00 -0.97553573E-09
    4    3   -0.61523840E+00  0.97922269E-09
    1    4    0.10031797E+00 -0.47560726E-10
    2    4   -0.25466097E+00  0.18273382E-08
    3    4    0.10031798E+00  0.57627709E-09
    4    4    0.90072608E+00  0.98703334E-09

    1    0    0
    1    1    0.90072607E+00  0.15811713E-10
    2    1   -0.61523841E+00 -0.35362186E-08
    3    1   -0.61523841E+00  0.51160893E-09
    4    1   -0.20896483E+01  0.36432658E-08
    1    2    0.10031797E+00  0.25396437E-08
    2    2   -0.24443525E+00  0.16297076E-08
    3    2    0.32232678E-01  0.12215098E-08
    4    2   -0.61523840E+00 -0.21121101E-08
    1    3    0.10031797E+00  0.13828879E-08
    2    3    0.32232677E-01 -0.13291839E-08
    3    3   -0.24443524E+00 -0.56268096E-09
    4    3   -0.61523840E+00 -0.16874242E-08
    1    4   -0.25466097E+00  0.57601919E-09
    2    4    0.10031798E+00  0.14121412E-08
    3    4    0.10031797E+00 -0.17993320E-08
    4    4    0.90072607E+00 -0.10828579E-08

    1    0    1
    1    1   -0.88754369E-04 -0.12330499E-08
    2    1    0.10031798E+00 -0.10719949E-09
    3    1   -0.38176759E-01 -0.20344753E-09
    4    1    0.10031797E+00  0.25285379E-09
    1    2    0.13490015E-01  0.91065185E-09
    2    2   -0.12934223E-01  0.39693139E-09
    3    2   -0.19883010E-02 -0.11397109E-08
    4    2   -0.21538150E-01 -0.21032980E-09
    1    3   -0.85402740E-02 -0.35241651E-09
    2    3    0.30209093E-01  0.28448492E-09
    3    3    0.31513779E-02  0.75520802E-09
    4    3    0.30209097E-01 -0.26993662E-09
    1    4    0.13490019E-01 -0.78156354E-09
    2    4   -0.21538151E-01 -0.99364019E-09
    3    4   -0.19883014E-02 -0.11579876E-09
    4    4   -0.12934223E-01  0.80903501E-10

    1    1   -3
    1    1    0.73784761E-02 -0.49930496E-09
    2    1   -0.85402700E-02  0.12709102E-08
    3    1   -0.85402721E-02  0.93766329E-09
    4    1   -0.85402732E-02  0.12262535E-08
    1    2   -0.85402740E-02 -0.33799559E-09
    2    2    0.73784758E-02  0.18088062E-09
    3    2   -0.85402712E-02  0.31270506E-09
    4    2   -0.85402712E-02 -0.92166721E-09
    1    3   -0.85402719E-02 -0.53171344E-09
    2    3   -0.85402747E-02  0.71596604E-10
    3    3    0.73784754E-02 -0.38338938E-09
    4    3   -0.85402705E-02 -0.46481609E-09
    1    4   -0.85402705E-02 -0.63090155E-09
    2    4   -0.85402733E-02 -0.79167721E-09
    3    4   -0.85402742E-02  0.10222957E-09
    4    4    0.73784759E-02  0.70178202E-09

    1    1   -2
    1    1    0.31513778E-02  0.26714055E-09
    2    1   -0.85402711E-02  0.26885692E-08
    3    1    0.30209097E-01  0.36547534E-09
    4    1    0.30209093E-01  0.58107049E-09
    1    2   -0.38176756E-01 -0.10152680E-08
    2    2   -0.88754677E-04 -0.75870293E-09
    3    2    0.10031798E+00  0.53358547E-09
    4    2    0.10031797E+00  0.14710933E-09
    1    3   -0.19883003E-02 -0.10264751E-09
    2    3    0.13490016E-01  0.99131508E-09
    3    3   -0.12934223E-01 -0.19261013E-09
    4    3   -0.21538149E-01  0.14265701E-09
    1    4   -0.19883008E-02  0.70393077E-09
    2    4    0.13490017E-01 -0.14466620E-08
    3    4   -0.21538152E-01 -0.63102383E-09
    4    4   -0.12934222E-01  0.68415967E-09

    1    1   -1
    1    1    0.15321719E-01  0.74356518E-09
    2    1   -0.38176760E-01 -0.18250228E-08
    3    1    0.32232677E-01 -0.98242320E-09
    4    1    0.32232678E-01  0.24386205E-08
    1    2   -0.38176758E-01 -0.52498471E-09
    2    2    0.15321719E-01 -0.47763266E-10
    3    2    0.32232677E-01  0.10570314E-08
    4    2    0.32232674E-01  0.29482554E-08
    1    3    0.15396611E-02 -0.95303508E-10
    2    3    0.15396620E-02 -0.12001455E-09
    3    3    0.15321720E-01 -0.42032677E-09
    4    3   -0.38176757E-01 -0.13123004E-08
    1    4    0.15396623E-02 -0.10346241E-09
    2    4    0.15396638E-02  0.58012078E-09
    3    4   -0.38176759E-01 -0.15071954E-08
    4    4    0.15321719E-01 -0.27542246E-09

    1    1    0
    1    1   -0.88755095E-04  0.16847917E-09
    2    1   -0.38176758E-01 -0.89396390E-09
    3    1    0.10031798E+00 -0.44544616E-09
    4    1    0.10031797E+00  0.15797475E-08
    1    2   -0.85402763E-02  0.18792017E-09
    2    2    0.31513777E-02 -0.50412664E-09
    3    2    0.30209098E-01  0.10734559E-08
    4    2    0.30209095E-01 -0.19273483E-08
    1    3    0.13490015E-01 -0.99368438E-09
    2    3   -0.19883018E-02 -0.44864272E-09
    3    3   -0.12934222E-01  0.57063611E-09
    4    3   -0.21538149E-01 -0.10928745E-08
    1    4    0.13490019E-01 -0.10444176E-08
    2    4   -0.19883009E-02  0.96323520E-09
    3    4   -0.21538153E-01 -0.17868315E-08
    4    4   -0.12934222E-01 -0.23499475E-09

    1    1    1
    1    1    0.73784761E-02 -0.49930497E-09
    2    1   -0.85402700E-02  0.12709103E-08
    3    1   -0.85402721E-02  0.93766330E-09
    4    1   -0.85402732E-02  0.12262535E-08
    1    2   -0.85402740E-02 -0.33799560E-09
    2    2    0.73784758E-02  0.18088059E-09
    3    2   -0.85402712E-02  0.31270500E-09
    4    2   -0.85402712E-02 -0.92166724E-09
    1    3   -0.85402719E-02 -0.53171344E-09
    2    3   -0.85402747E-02  0.71596618E-10
    3    3    0.73784754E-02 -0.38338932E-09
    4    3   -0.85402705E-02 -0.46481606E-09
    1    4   -0.85402705E-02 -0.63090153E-09
    2    4   -0.85402733E-02 -0.79167725E-09
    3    4   -0.85402742E-02  0.10222959E-09
    4    4    0.73784759E-02  0.70178194E-09

    1    2   -2
    1    1    0.12409574E-01  0.14423654E-09
    2    1   -0.19883026E-02 -0.16719433E-08
    3    1   -0.19883008E-02 -0.77633921E-09
    4    1   -0.40231869E-02  0.67899032E-09
    1    2   -0.79546405E-02 -0.72376352E-09
    2    2    0.15749601E-01  0.29534206E-09
    3    2    0.15396627E-02  0.56690677E-09
    4    2   -0.19883025E-02  0.14819255E-08
    1    3   -0.79546419E-02  0.10967010E-08
    2    3    0.15396630E-02  0.23909644E-09
    3    3    0.15749602E-01  0.37822356E-10
    4    3   -0.19882994E-02  0.15090652E-09
    1    4   -0.35022557E-02  0.61466095E-09
    2    4   -0.79546412E-02 -0.72136352E-09
    3    4   -0.79546423E-02 -0.48214548E-09
    4    4    0.12409575E-01 -0.47741991E-09

    1    2   -1
    1    1    0.15749602E-01  0.54436041E-09
    2    1   -0.79546417E-02 -0.35534208E-09
    3    1    0.15396646E-02 -0.12888099E-08
    4    1   -0.19882995E-02  0.13691867E-08
    1    2   -0.19883023E-02 -0.48861585E-09
    2    2    0.12409574E-01 -0.39899951E-09
    3    2   -0.19883002E-02  0.62489580E-09
    4    2   -0.40231880E-02  0.11847601E-09
    1    3    0.15396614E-02 -0.14323549E-09
    2    3   -0.79546401E-02  0.22164267E-10
    3    3    0.15749602E-01  0.26874111E-09
    4    3   -0.19883020E-02 -0.18640199E-08
    1    4   -0.79546415E-02  0.16936015E-10
    2    4   -0.35022553E-02 -0.28488712E-10
    3    4   -0.79546415E-02 -0.17080182E-09
    4    4    0.12409574E-01 -0.41408220E-09

    2   -2   -2
    1    1    0.11647286E-01 -0.17481310E-16
    2    1   -0.35022562E-02  0.26662493E-09
    3    1   -0.35022557E-02 -0.13640334E-08
    4    1   -0.35022554E-02  0.14873152E-09
    1    2   -0.35022562E-02 -0.26662492E-09
    2    2    0.11647286E-01  0.39981406E-16
    3    2   -0.35022556E-02  0.59006990E-09
    4    2   -0.35022555E-02  0.86230902E-09
    1    3   -0.35022557E-02  0.13640334E-08
    2    3   -0.35022556E-02 -0.59006987E-09
    3    3    0.11647286E-01  0.28217865E-16
    4    3   -0.35022564E-02 -0.11935487E-09
    1    4   -0.35022554E-02 -0.14873152E-09
    2    4   -0.35022555E-02 -0.86230902E-09
    3    4   -0.35022564E-02  0.11935484E-09
    4    4    0.11647286E-01 -0.12768579E-16

    2   -2   -1
    1    1    0.12409574E-01  0.76145035E-10
    2    1   -0.35022554E-02 -0.50001246E-09
    3    1   -0.79546400E-02 -0.46236293E-09
    4    1   -0.79546416E-02 -0.14064498E-08
    1    2   -0.40231880E-02 -0.46083641E-09
    2    2    0.12409575E-01 -0.18816276E-09
    3    2   -0.19883013E-02 -0.34370315E-09
    4    2   -0.19882994E-02  0.51412283E-09
    1    3   -0.19883023E-02  0.66103353E-09
    2    3   -0.79546395E-02 -0.29039740E-09
    3    3    0.15749601E-01 -0.19740787E-09
    4    3    0.15396621E-02 -0.52539909E-09
    1    4   -0.19883003E-02 -0.10838902E-08
    2    4   -0.79546402E-02  0.48492178E-09
    3    4    0.15396629E-02 -0.34730190E-09
    4    4    0.15749602E-01  0.30943628E-09

    2   -2    0
    1    1   -0.17298469E-01  0.29165039E-16
    2    1   -0.40231864E-02  0.14322692E-09
    3    1   -0.21538149E-01  0.42108109E-09
    4    1   -0.21538153E-01 -0.10150242E-08
    1    2   -0.40231864E-02 -0.14322692E-09
    2    2   -0.17298468E-01 -0.31252128E-16
    3    2   -0.21538150E-01  0.11687135E-08
    4    2   -0.21538150E-01 -0.13500264E-08
    1    3   -0.21538149E-01 -0.42108108E-09
    2    3   -0.21538150E-01 -0.11687134E-08
    3    3    0.17684994E+00  0.54308926E-17
    4    3   -0.25466097E+00 -0.13135955E-08
    1    4   -0.21538153E-01  0.10150242E-08
    2    4   -0.21538150E-01  0.13500264E-08
    3    4   -0.25466097E+00  0.13135955E-08
    4    4    0.17684994E+00  0.22853284E-16

    2   -2    1
    1    1    0.12409574E-01 -0.76145035E-10
    2    1   -0.40231880E-02  0.46083640E-09
    3    1   -0.19883023E-02 -0.66103349E-09
    4    1   -0.19883003E-02  0.10838901E-08
    1    2   -0.35022554E-02  0.50001246E-09
    2    2    0.12409575E-01  0.18816276E-09
    3    2   -0.79546395E-02  0.29039743E-09
    4    2   -0.79546402E-02 -0.48492178E-09
    1    3   -0.79546400E-02  0.46236297E-09
    2    3   -0.19883013E-02  0.34370314E-09
    3    3    0.15749601E-01  0.19740787E-09
    4    3    0.15396629E-02  0.34730191E-09
    1    4   -0.79546416E-02  0.14064498E-08
    2    4   -0.19882994E-02 -0.51412277E-09
    3    4    0.15396621E-02  0.52539913E-09
    4    4    0.15749602E-01 -0.30943628E-09

    2   -2    2
    1    1    0.11647286E-01 -0.14123184E-16
    2    1   -0.35022562E-02  0.26662492E-09
    3    1   -0.35022557E-02 -0.13640334E-08
    4    1   -0.35022554E-02  0.14873152E-09
    1    2   -0.35022562E-02 -0.26662494E-09
    2    2    0.11647286E-01  0.43339531E-16
    3    2   -0.35022556E-02  0.59006991E-09
    4    2   -0.35022555E-02  0.86230900E-09
    1    3   -0.35022557E-02  0.13640334E-08
    2    3   -0.35022556E-02 -0.59006987E-09
    3    3    0.11647286E-01  0.69815974E-17
    4    3   -0.35022564E-02 -0.11935484E-09
    1    4   -0.35022554E-02 -0.14873152E-09
    2    4   -0.35022555E-02 -0.86230903E-09
    3    4   -0.35022564E-02  0.11935487E-09
    4    4    0.11647286E-01 -0.34004847E-16

    2   -1   -2
    1    1    0.12409574E-01  0.17379372E-09
    2    1   -0.79546394E-02 -0.57679639E-10
    3    1   -0.35022556E-02 -0.49633455E-09
    4    1   -0.79546411E-02 -0.55327017E-09
    1    2   -0.19883018E-02 -0.49419030E-09
    2    2    0.15749602E-01 -0.39494052E-09
    3    2   -0.79546422E-02  0.37222003E-10
    4    2    0.15396644E-02  0.69269181E-09
    1    3   -0.40231886E-02 -0.45372101E-09
    2    3   -0.19883010E-02  0.69513686E-10
    3    3    0.12409574E-01  0.25851887E-09
    4    3   -0.19882999E-02  0.10846226E-08
    1    4   -0.19883002E-02 -0.21177827E-08
    2    4    0.15396621E-02 -0.42917361E-09
    3    4   -0.79546408E-02 -0.49037788E-09
    4    4    0.15749601E-01 -0.37399001E-10

    2   -1   -1
    1    1    0.31513776E-02  0.10994156E-09
    2    1   -0.19883003E-02  0.44000367E-09
    3    1   -0.19883002E-02  0.47091920E-09
    4    1   -0.38176759E-01 -0.21351786E-08
    1    2    0.30209098E-01 -0.34101533E-09
    2    2   -0.12934222E-01  0.58205163E-09
    3    2   -0.21538152E-01 -0.82531210E-09
    4    2    0.10031798E+00  0.21457820E-08
    1    3    0.30209096E-01 -0.14625250E-08
    2    3   -0.21538149E-01  0.19890298E-10
    3    3   -0.12934222E-01  0.21418335E-09
    4    3    0.10031797E+00  0.86270338E-09
    1    4   -0.85402757E-02  0.46871763E-10
    2    4    0.13490018E-01  0.45743496E-09
    3    4    0.13490018E-01  0.73098582E-09
    4    4   -0.88754491E-04 -0.90621053E-09

    2   -1    0
    1    1   -0.12934222E-01  0.54794155E-10
    2    1    0.30209092E-01 -0.65723531E-09
    3    1   -0.21538152E-01 -0.69460716E-09
    4    1    0.10031798E+00  0.21515620E-08
    1    2   -0.19883005E-02  0.54013291E-09
    2    2    0.31513776E-02  0.33380929E-09
    3    2   -0.19883024E-02  0.63831629E-09
    4    2   -0.38176756E-01 -0.10962462E-08
    1    3   -0.21538150E-01 -0.58684713E-09
    2    3    0.30209098E-01 -0.23952001E-09
    3    3   -0.12934223E-01 -0.60660602E-09
    4    3    0.10031798E+00  0.21413653E-08
    1    4    0.13490016E-01  0.52513476E-09
    2    4   -0.85402722E-02  0.10699246E-08
    3    4    0.13490018E-01 -0.43137234E-09
    4    4   -0.88754831E-04  0.21805649E-09

    2   -1    1
    1    1    0.15749602E-01 -0.21521184E-09
    2    1   -0.19883008E-02 -0.14200648E-09
    3    1   -0.79546417E-02 -0.30174827E-09
    4    1    0.15396630E-02  0.28559032E-09
    1    2   -0.79546425E-02  0.12662595E-08
    2    2    0.12409574E-01 -0.89970264E-10
    3    2   -0.35022564E-02 -0.65134141E-10
    4    2   -0.79546408E-02  0.21352929E-09
    1    3   -0.19883009E-02  0.43968838E-09
    2    3   -0.40231872E-02 -0.23091958E-09
    3    3    0.12409575E-01  0.37297439E-09
    4    3   -0.19883007E-02  0.11541646E-08
    1    4    0.15396630E-02 -0.95293377E-09
    2    4   -0.19883019E-02 -0.14690303E-08
    3    4   -0.79546408E-02 -0.69267491E-10
    4    4    0.15749601E-01 -0.67785175E-10

    2    0   -2
    1    1   -0.17298468E-01 -0.26291902E-17
    2    1   -0.21538149E-01  0.62222453E-09
    3    1   -0.40231863E-02  0.14406786E-08
    4    1   -0.21538152E-01  0.23169890E-09
    1    2   -0.21538149E-01 -0.62222458E-09
    2    2    0.17684994E+00 -0.14952055E-16
    3    2   -0.21538154E-01  0.41894355E-09
    4    2   -0.25466097E+00 -0.91655180E-09
    1    3   -0.40231863E-02 -0.14406786E-08
    2    3   -0.21538154E-01 -0.41894351E-09
    3    3   -0.17298469E-01 -0.15693773E-16
    4    3   -0.21538149E-01  0.10721637E-08
    1    4   -0.21538152E-01 -0.23169890E-09
    2    4   -0.25466097E+00  0.91655183E-09
    3    4   -0.21538149E-01 -0.10721637E-08
    4    4    0.17684994E+00  0.10167907E-16

    2    0   -1
    1    1   -0.12934222E-01  0.46134632E-09
    2    1   -0.21538153E-01 -0.33358884E-09
    3    1    0.30209095E-01  0.13928330E-09
    4    1    0.10031798E+00  0.11647368E-08
    1    2   -0.21538149E-01 -0.10549214E-08
    2    2   -0.12934223E-01  0.11237654E-08
    3    2    0.30209094E-01 -0.76953603E-09
    4    2    0.10031798E+00  0.20815281E-08
    1    3   -0.19883009E-02  0.90405207E-09
    2    3   -0.19883014E-02  0.82217566E-09
    3    3    0.31513786E-02 -0.39399745E-09
    4    3   -0.38176757E-01 -0.62153688E-09
    1    4    0.13490016E-01  0.44141139E-09
    2    4    0.13490018E-01  0.38088734E-09
    3    4   -0.85402707E-02  0.48207299E-10
    4    4   -0.88755138E-04 -0.11910916E-08

    2    0    0
    1    1    0.17684994E+00 -0.61711857E-15
    2    1   -0.21538153E-01 -0.19281587E-08
    3    1   -0.21538153E-01 -0.38277232E-09
    4    1   -0.25466097E+00  0.35900995E-09
    1    2   -0.21538153E-01  0.19281590E-08
    2    2   -0.17298469E-01 -0.50454525E-15
    3    2   -0.40231870E-02  0.17163540E-09
    4    2   -0.21538151E-01 -0.13715773E-08
    1    3   -0.21538153E-01  0.38277267E-09
    2    3   -0.40231870E-02 -0.17163512E-09
    3    3   -0.17298469E-01 -0.49337802E-15
    4    3   -0.21538149E-01 -0.97281963E-10
    1    4   -0.25466097E+00 -0.35900946E-09
    2    4   -0.21538151E-01  0.13715777E-08
    3    4   -0.21538149E-01  0.97282311E-10
    4    4    0.17684994E+00 -0.60466369E-15

    2    1   -2
    1    1    0.12409574E-01 -0.17379367E-09
    2    1   -0.19883018E-02  0.49419027E-09
    3    1   -0.40231886E-02  0.45372102E-09
    4    1   -0.19883002E-02  0.21177827E-08
    1    2   -0.79546394E-02  0.57679611E-10
    2    2    0.15749602E-01  0.39494052E-09
    3    2   -0.19883010E-02 -0.69513742E-10
    4    2    0.15396621E-02  0.42917356E-09
    1    3   -0.35022556E-02  0.49633454E-09
    2    3   -0.79546422E-02 -0.37221989E-10
    3    3    0.12409574E-01 -0.25851871E-09
    4    3   -0.79546408E-02  0.49037785E-09
    1    4   -0.79546411E-02  0.55327015E-09
    2    4    0.15396644E-02 -0.69269181E-09
    3    4   -0.19882999E-02 -0.10846226E-08
    4    4    0.15749601E-01  0.37398945E-10

    2    1   -1
    1    1    0.15749602E-01  0.21521198E-09
    2    1   -0.79546425E-02 -0.12662595E-08
    3    1   -0.19883009E-02 -0.43968828E-09
    4    1    0.15396630E-02  0.95293377E-09
    1    2   -0.19883008E-02  0.14200652E-09
    2    2    0.12409574E-01  0.89970020E-10
    3    2   -0.40231872E-02  0.23091975E-09
    4    2   -0.19883019E-02  0.14690303E-08
    1    3   -0.79546417E-02  0.30174827E-09
    2    3   -0.35022564E-02  0.65134242E-10
    3    3    0.12409575E-01 -0.37297454E-09
    4    3   -0.79546408E-02  0.69267488E-10
    1    4    0.15396630E-02 -0.28559031E-09
    2    4   -0.79546408E-02 -0.21352929E-09
    3    4   -0.19883007E-02 -0.11541644E-08
    4    4    0.15749601E-01  0.67785102E-10

    2    2   -2
    1    1    0.11647286E-01 -0.14123184E-16
    2    1   -0.35022562E-02  0.26662494E-09
    3    1   -0.35022557E-02 -0.13640334E-08
    4    1   -0.35022554E-02  0.14873151E-09
    1    2   -0.35022562E-02 -0.26662492E-09
    2    2    0.11647286E-01  0.18745138E-16
    3    2   -0.35022556E-02  0.59006992E-09
    4    2   -0.35022555E-02  0.86230903E-09
    1    3   -0.35022557E-02  0.13640334E-08
    2    3   -0.35022556E-02 -0.59006986E-09
    3    3    0.11647286E-01  0.31575991E-16
    4    3   -0.35022564E-02 -0.11935487E-09
    1    4   -0.35022554E-02 -0.14873152E-09
    2    4   -0.35022555E-02 -0.86230901E-09
    3    4   -0.35022564E-02  0.11935483E-09
    4    4    0.11647286E-01 -0.34004847E-16

    3   -1   -1
    1    1    0.73784761E-02  0.49930504E-09
    2    1   -0.85402740E-02  0.33799559E-09
    3    1   -0.85402719E-02  0.53171342E-09
    4    1   -0.85402705E-02  0.63090157E-09
    1    2   -0.85402700E-02 -0.12709103E-08
    2    2    0.73784758E-02 -0.18088062E-09
    3    2   -0.85402747E-02 -0.71596590E-10
    4    2   -0.85402733E-02  0.79167715E-09
    1    3   -0.85402721E-02 -0.93766329E-09
    2    3   -0.85402712E-02 -0.31270503E-09
    3    3    0.73784754E-02  0.38338946E-09
    4    3   -0.85402742E-02 -0.10222963E-09
    1    4   -0.85402732E-02 -0.12262535E-08
    2    4   -0.85402712E-02  0.92166723E-09
    3    4   -0.85402705E-02  0.46481609E-09
    4    4    0.73784759E-02 -0.70178194E-09

   -3    1    1
    1    1   -0.14702157E-08  0.71919756E-10  0.84331176E-09 -0.36028641E-10  0.86287638E-09 -0.19901287E-09
    2    1    0.94875054E-03  0.35192580E-10 -0.94874956E-03 -0.16948274E-08 -0.21015891E-02 -0.77447655E-09
    3    1    0.21015892E-02 -0.33994510E-09 -0.94875008E-03 -0.16898704E-09 -0.94874964E-03 -0.61286827E-09
    4    1    0.94874883E-03  0.53038804E-09 -0.21015869E-02  0.10233637E-08 -0.94874769E-03  0.59889584E-09
    1    2   -0.17605966E-03 -0.37884768E-09  0.17605823E-03 -0.15355810E-09 -0.16395966E-02 -0.12884313E-08
    2    2    0.69979494E-09 -0.67238691E-09  0.72716133E-09 -0.60100916E-10  0.12205610E-08  0.21300243E-09
    3    2   -0.47285912E-03  0.59628418E-09  0.16256982E-02  0.48864253E-09 -0.18995648E-03  0.61251144E-09
    4    2   -0.16256984E-02 -0.75461934E-09  0.47285818E-03 -0.20941434E-09 -0.18995718E-03 -0.29763779E-09
    1    3    0.16395971E-02  0.15309702E-08  0.17605945E-03  0.56684829E-10  0.17606021E-03  0.38541511E-10
    2    3    0.18995547E-03 -0.14133348E-09  0.16256982E-02  0.78050354E-09  0.47285708E-03  0.16731256E-08
    3    3   -0.10064486E-08  0.11758965E-09  0.81731389E-09 -0.14810374E-09  0.11475507E-08  0.49665376E-09
    4    3    0.18995725E-03  0.10544227E-09  0.47285789E-03 -0.58144851E-09  0.16256973E-02 -0.50702876E-09
    1    4   -0.17605906E-03 -0.50783821E-09 -0.16395961E-02 -0.10011989E-08  0.17605836E-03  0.54321008E-09
    2    4   -0.16256995E-02  0.42489821E-09 -0.18995634E-03  0.14853272E-08  0.47285952E-03 -0.12263867E-08
    3    4   -0.47285864E-03  0.19875106E-09 -0.18995575E-03 -0.20974901E-09  0.16256986E-02  0.25690559E-10
    4    4    0.84037078E-10  0.15417977E-09 -0.78373822E-09 -0.87560991E-10  0.49301772E-09  0.84813239E-09

   -2   -2    2
    1    1   -0.23582190E-17 -0.99475699E-25 -0.97858889E-18  0.47646591E-25 -0.27168173E-17  0.13274993E-24
    2    1    0.45990246E-04  0.90665575E-09 -0.45989891E-04 -0.95871326E-09  0.19785867E-04 -0.26143869E-08
    3    1   -0.19786657E-04  0.17525497E-08 -0.45992401E-04 -0.34019177E-09 -0.45990847E-04 -0.86830290E-09
    4    1    0.45990750E-04  0.44450567E-09  0.19787442E-04 -0.31163661E-09 -0.45989871E-04  0.53380716E-09
    1    2   -0.45990246E-04  0.90665575E-09  0.45989891E-04 -0.95871326E-09 -0.19785867E-04 -0.26143869E-08
    2    2    0.28622937E-16 -0.13399818E-24 -0.32092384E-16  0.35106602E-24 -0.17347235E-17  0.81203944E-25
    3    2   -0.65777846E-04 -0.36312496E-09  0.63290941E-09  0.80248696E-09 -0.65777104E-04  0.11713028E-08
    4    2   -0.28236132E-09 -0.42102036E-09  0.65777532E-04  0.12730948E-08 -0.65778510E-04 -0.55002647E-09
    1    3    0.19786657E-04  0.17525497E-08  0.45992401E-04 -0.34019177E-09  0.45990847E-04 -0.86830289E-09
    2    3    0.65777846E-04 -0.36312496E-09 -0.63290941E-09  0.80248696E-09  0.65777104E-04  0.11713028E-08
    3    3    0.50493470E-17 -0.58815618E-25 -0.27885742E-18  0.58519399E-25  0.14156645E-16  0.11920467E-24
    4    3    0.65777364E-04  0.78890602E-10  0.65776778E-04 -0.23329264E-09  0.85714815E-09 -0.15332177E-09
    1    4   -0.45990750E-04  0.44450568E-09 -0.19787442E-04 -0.31163661E-09  0.45989871E-04  0.53380716E-09
    2    4    0.28236133E-09 -0.42102036E-09 -0.65777532E-04  0.12730948E-08  0.65778510E-04 -0.55002647E-09
    3    4   -0.65777364E-04  0.78890603E-10 -0.65776778E-04 -0.23329263E-09 -0.85714816E-09 -0.15332177E-09
    4    4    0.28726727E-16 -0.25763570E-24 -0.90808475E-17  0.13977920E-25 -0.68351038E-17 -0.86508658E-25

   -2   -1    1
    1    1    0.10143507E-09  0.10495260E-09 -0.85777893E-10 -0.85749932E-10  0.10143507E-09  0.10495260E-09
    2    1   -0.86861273E-03  0.48644842E-09 -0.57165851E-03 -0.12638963E-08  0.12542800E-02 -0.21133543E-08
    3    1    0.90270918E-03  0.68596044E-09  0.31844674E-03 -0.94220828E-09 -0.66717432E-03 -0.42133256E-09
    4    1   -0.16282442E-03 -0.66003854E-10  0.75539211E-03  0.68576957E-09 -0.67829828E-03  0.47152448E-09
    1    2   -0.47558802E-03  0.11259620E-08 -0.51003610E-03  0.11668972E-09  0.10942988E-02 -0.19684322E-08
    2    2    0.17193415E-09 -0.40421992E-10  0.30330322E-09 -0.13118792E-09  0.17193419E-09 -0.40421989E-10
    3    2    0.18528416E-04  0.58072238E-09  0.47248289E-04  0.13654982E-08  0.18529510E-04  0.74883101E-09
    4    2    0.76859982E-03 -0.51653330E-09 -0.53306397E-03  0.19145971E-09 -0.14989041E-03 -0.52189527E-10
    1    3    0.90023118E-03  0.96281678E-09  0.84159528E-03 -0.15354037E-09 -0.12226644E-02 -0.10551050E-08
    2    3    0.18039845E-04 -0.14535118E-09  0.14117878E-03  0.12091439E-08  0.18038861E-04  0.86992209E-09
    3    3    0.99531648E-09  0.40030455E-10  0.43101278E-09  0.12888549E-09  0.99531646E-09  0.40030484E-10
    4    3   -0.90818716E-03 -0.28476336E-09  0.58466625E-03 -0.82882203E-09  0.58575502E-03 -0.15462630E-09
    1    4   -0.67829958E-03 -0.10745828E-08  0.27393260E-03 -0.95919624E-09 -0.16282479E-03  0.16141891E-08
    2    4    0.93980294E-03  0.52982567E-09 -0.31473075E-03  0.15452633E-08 -0.55413492E-03 -0.77292356E-09
    3    4   -0.34147584E-03 -0.26746926E-09  0.34147729E-03 -0.47144713E-09  0.57701074E-03 -0.23496956E-09
    4    4    0.14022214E-09  0.28910786E-11 -0.69967878E-09 -0.14797254E-09  0.14022220E-09  0.28911264E-11

   -2   -1    2
    1    1   -0.44108940E-09  0.31435148E-09  0.32565909E-09 -0.11652266E-09  0.32565909E-09 -0.11652266E-09
    2    1   -0.66717379E-03 -0.63647692E-09 -0.31844828E-03 -0.92212251E-09  0.90270999E-03 -0.11642093E-08
    3    1    0.19786887E-04  0.23070838E-08  0.45989352E-04  0.61649802E-10  0.45989476E-04 -0.32158358E-09
    4    1   -0.66717590E-03  0.78329596E-09  0.90271089E-03  0.13645413E-09 -0.31844728E-03 -0.79018491E-10
    1    2   -0.61431500E-03  0.81757585E-09 -0.82595841E-03 -0.51877849E-09  0.12393874E-02 -0.63405011E-10
    2    2    0.42958911E-09  0.26274054E-09  0.52960821E-09 -0.21827456E-09  0.52960816E-09 -0.21827455E-09
    3    2    0.48292146E-03 -0.11568264E-09  0.73823775E-03  0.73004170E-09 -0.48291941E-03  0.91191763E-09
    4    2    0.34443235E-03 -0.19704324E-09  0.24813415E-03  0.11112468E-08 -0.74879980E-03 -0.13179654E-08
    1    3    0.66853482E-04  0.10105439E-08  0.92365730E-04  0.12872315E-08  0.92365785E-04 -0.11784636E-08
    2    3    0.74273361E-03  0.79910815E-09  0.99909169E-03  0.93756952E-09 -0.10662539E-02  0.15792935E-08
    3    3   -0.19334102E-09  0.14355278E-09  0.53305681E-09  0.60906882E-10  0.53305681E-09  0.60906900E-10
    4    3    0.74273416E-03 -0.10391254E-08 -0.10662534E-02 -0.73077761E-09  0.99909241E-03  0.44410066E-09
    1    4   -0.61431327E-03 -0.64116090E-09  0.12393877E-02 -0.12704831E-08 -0.82595922E-03  0.79915020E-09
    2    4    0.34443142E-03 -0.98313485E-11 -0.74879829E-03  0.19722880E-08  0.24813505E-03 -0.24129492E-08
    3    4    0.48292022E-03 -0.94153436E-09 -0.48292004E-03 -0.10934285E-08  0.73823806E-03 -0.43467119E-09
    4    4   -0.77805194E-10  0.10041322E-09 -0.45031257E-09 -0.67386786E-10 -0.45031255E-09 -0.67386808E-10

   -2    0    0
    1    1    0.46707994E-09 -0.25060525E-25  0.40077692E-09  0.14418971E-24  0.46707994E-09 -0.19924850E-24
    2    1    0.23266674E-02  0.66843226E-09  0.62758725E-03 -0.10910685E-08 -0.12540416E-02 -0.13624565E-08
    3    1    0.12540394E-02  0.62789662E-09  0.62758684E-03 -0.14127550E-09 -0.23266666E-02 -0.20596362E-09
    4    1    0.10260690E-01  0.61755465E-09  0.47296341E-02  0.10465200E-08 -0.10260690E-01  0.37262935E-09
    1    2   -0.12540416E-02  0.13624565E-08 -0.66512611E-03  0.72886550E-10  0.23266674E-02 -0.66843227E-09
    2    2    0.12817054E-08 -0.49414192E-16 -0.49515904E-10  0.49414192E-16  0.12817053E-08 -0.12256701E-24
    3    2   -0.72404981E-09 -0.53761868E-09 -0.12313904E-03  0.49926809E-09 -0.11853341E-08  0.48775054E-09
    4    2    0.17807480E-02  0.11497475E-08 -0.55847532E-03  0.32505003E-09 -0.70812303E-03 -0.56026913E-09
    1    3   -0.23266666E-02  0.20596362E-09 -0.66512650E-03  0.57224750E-09  0.12540394E-02 -0.62789660E-09
    2    3   -0.11853341E-08 -0.48775054E-09 -0.12313872E-03  0.24807823E-09 -0.72404982E-09  0.53761868E-09
    3    3    0.24868546E-08 -0.18815275E-24  0.70765693E-10  0.49414192E-16  0.24868547E-08  0.49414192E-16
    4    3    0.70812186E-03 -0.61205305E-09 -0.55847469E-03 -0.11169257E-08 -0.17807471E-02 -0.45904478E-09
    1    4   -0.10260690E-01 -0.37262934E-09  0.29232397E-02 -0.59437886E-09  0.10260690E-01 -0.61755465E-09
    2    4   -0.70812303E-03  0.56026912E-09  0.52093676E-03  0.14419572E-08  0.17807480E-02 -0.11497475E-08
    3    4   -0.17807471E-02  0.45904479E-09  0.52093750E-03  0.50220891E-10  0.70812186E-03  0.61205307E-09
    4    4   -0.24808066E-09 -0.49414192E-16 -0.13882740E-08 -0.19901771E-24 -0.24808066E-09  0.49414192E-16

   -2    0    1
    1    1   -0.33465107E-09  0.50790721E-09  0.20800749E-09 -0.23068765E-09  0.31035960E-10 -0.24935875E-10
    2    1   -0.23266654E-02  0.86060058E-10 -0.62758762E-03 -0.18297854E-08  0.12540404E-02 -0.12823076E-08
    3    1    0.12542798E-02  0.92075357E-09  0.57165687E-03 -0.81620918E-09 -0.86861349E-03 -0.64561391E-09
    4    1    0.61865635E-04  0.38761981E-09 -0.39476118E-03  0.82689737E-09  0.90997150E-05  0.13776638E-08
    1    2   -0.93167721E-03  0.10636746E-08 -0.20225785E-02 -0.22949405E-10  0.13272606E-02  0.71208241E-09
    2    2    0.12972593E-08  0.64700900E-09  0.10184973E-08 -0.28493330E-09  0.13729523E-08  0.32647906E-09
    3    2    0.87590314E-03 -0.71284977E-09  0.95003374E-03  0.39386368E-09 -0.93308237E-03  0.37769676E-09
    4    2   -0.32288356E-03 -0.16462708E-09 -0.10011208E-04  0.81994994E-09  0.11036910E-03 -0.19079337E-08
    1    3    0.18946979E-02  0.45248367E-09  0.19699517E-02  0.58648664E-09 -0.11782870E-02 -0.15692000E-08
    2    3    0.21229885E-02 -0.28512594E-09  0.17416598E-02  0.10777014E-08 -0.96775924E-03  0.16381924E-08
    3    3    0.77082341E-09  0.25071641E-09  0.12580631E-08  0.32852735E-09  0.14486108E-08  0.45124079E-09
    4    3   -0.13990264E-02 -0.93504771E-09 -0.99593440E-03 -0.10299425E-08  0.19023256E-02  0.44433534E-09
    1    4   -0.15767761E-02 -0.14320248E-08  0.22200711E-02 -0.14342939E-08 -0.14198692E-02  0.89264731E-09
    2    4    0.22618117E-02  0.53747133E-09 -0.16185186E-02  0.11099172E-08  0.59888027E-03 -0.19315641E-08
    3    4   -0.23161532E-02  0.70224781E-09 -0.16927412E-02  0.62741602E-09  0.19548987E-02 -0.49225395E-09
    4    4    0.35084087E-09  0.70875588E-09 -0.35726435E-09  0.67228499E-09 -0.76804216E-11  0.79935077E-09

   -2    0    2
    1    1   -0.12870060E-08 -0.25241392E-24  0.98717077E-09 -0.81207948E-25  0.98717077E-09  0.12358613E-24
[...]
    4    3    0.65777364E-04  0.78890602E-10  0.65776778E-04 -0.23329264E-09  0.85714815E-09 -0.15332177E-09
    1    4   -0.45990750E-04  0.44450568E-09 -0.19787442E-04 -0.31163661E-09  0.45989871E-04  0.53380716E-09
    2    4    0.28236133E-09 -0.42102036E-09 -0.65777532E-04  0.12730948E-08  0.65778510E-04 -0.55002647E-09
    3    4   -0.65777364E-04  0.78890604E-10 -0.65776778E-04 -0.23329263E-09 -0.85714816E-09 -0.15332177E-09
    4    4    0.28726727E-16 -0.13412476E-24 -0.90808475E-17  0.14637613E-24 -0.68351038E-17 -0.21001959E-24

    2   -1   -2
    1    1   -0.44108940E-09  0.31435148E-09  0.32565909E-09 -0.11652266E-09  0.32565909E-09 -0.11652266E-09
    2    1   -0.66717379E-03 -0.63647692E-09 -0.31844828E-03 -0.92212251E-09  0.90270999E-03 -0.11642093E-08
    3    1    0.19786887E-04  0.23070838E-08  0.45989352E-04  0.61649803E-10  0.45989476E-04 -0.32158358E-09
    4    1   -0.66717590E-03  0.78329596E-09  0.90271089E-03  0.13645413E-09 -0.31844728E-03 -0.79018490E-10
    1    2   -0.61431500E-03  0.81757585E-09 -0.82595841E-03 -0.51877850E-09  0.12393874E-02 -0.63405011E-10
    2    2    0.42958910E-09  0.26274054E-09  0.52960820E-09 -0.21827455E-09  0.52960816E-09 -0.21827455E-09
    3    2    0.48292146E-03 -0.11568264E-09  0.73823775E-03  0.73004170E-09 -0.48291941E-03  0.91191763E-09
    4    2    0.34443235E-03 -0.19704324E-09  0.24813415E-03  0.11112468E-08 -0.74879980E-03 -0.13179654E-08
    1    3    0.66853482E-04  0.10105439E-08  0.92365730E-04  0.12872315E-08  0.92365785E-04 -0.11784636E-08
    2    3    0.74273361E-03  0.79910815E-09  0.99909169E-03  0.93756952E-09 -0.10662539E-02  0.15792935E-08
    3    3   -0.19334102E-09  0.14355278E-09  0.53305681E-09  0.60906885E-10  0.53305682E-09  0.60906903E-10
    4    3    0.74273416E-03 -0.10391253E-08 -0.10662534E-02 -0.73077761E-09  0.99909241E-03  0.44410066E-09
    1    4   -0.61431327E-03 -0.64116090E-09  0.12393877E-02 -0.12704831E-08 -0.82595922E-03  0.79915020E-09
    2    4    0.34443142E-03 -0.98313467E-11 -0.74879829E-03  0.19722880E-08  0.24813505E-03 -0.24129492E-08
    3    4    0.48292022E-03 -0.94153436E-09 -0.48292004E-03 -0.10934285E-08  0.73823806E-03 -0.43467119E-09
    4    4   -0.77805191E-10  0.10041321E-09 -0.45031257E-09 -0.67386786E-10 -0.45031256E-09 -0.67386808E-10

    2   -1   -1
    1    1   -0.75481163E-09 -0.12666654E-09  0.53634094E-09  0.72652067E-10  0.43487255E-09  0.56787623E-10
    2    1   -0.77737973E-03 -0.12083792E-08 -0.12868769E-02  0.16913779E-09  0.77846689E-03 -0.62098291E-09
    3    1   -0.77846844E-03  0.97733395E-09 -0.12868781E-02 -0.34298613E-09  0.77738105E-03 -0.10637796E-09
    4    1    0.48266966E-03 -0.54940951E-09  0.35119649E-02 -0.14405405E-10 -0.48266885E-03  0.59306029E-09
    1    2   -0.11352563E-02 -0.58594595E-09 -0.20129833E-02  0.61740910E-09  0.15489555E-02 -0.31670353E-09
    2    2    0.11523073E-08  0.67610944E-09  0.43565723E-10 -0.41373743E-09  0.11190584E-08 -0.15182958E-09
    3    2    0.12193620E-02  0.12182534E-08  0.19220777E-02  0.29735868E-09 -0.81830273E-03  0.95712797E-09
    4    2    0.10707222E-02  0.53126734E-09 -0.37941161E-03  0.22169251E-08  0.22129720E-02 -0.15477774E-08
    1    3   -0.15489537E-02  0.28554220E-09 -0.20129828E-02 -0.45396370E-10  0.11352553E-02  0.68367481E-09
    2    3    0.81830192E-03  0.12578691E-08  0.19220778E-02 -0.72968177E-11 -0.12193638E-02  0.12184548E-08
    3    3   -0.61420481E-09 -0.10167060E-09  0.11718240E-08 -0.17552209E-09  0.13599174E-08 -0.34383390E-09
    4    3   -0.22129724E-02 -0.22111645E-09 -0.37941354E-03 -0.19575198E-09 -0.10707226E-02 -0.32681030E-09
    1    4    0.11656737E-02  0.73727160E-09  0.18527747E-02 -0.93905439E-09 -0.11656747E-02  0.56655221E-10
    2    4    0.25813347E-03  0.22753523E-09  0.14572676E-03  0.17537577E-08  0.14573026E-03 -0.20505731E-08
    3    4   -0.14572682E-03 -0.95458513E-09  0.14572851E-03  0.18874382E-09 -0.25813450E-03 -0.40616230E-10
    4    4    0.70061933E-09  0.33051957E-09 -0.56244783E-09 -0.14734300E-09  0.25078080E-09 -0.47994059E-10

    2   -1    0
    1    1    0.12135227E-09  0.70274432E-10  0.27646483E-09  0.58250168E-11  0.61370726E-09  0.47504067E-09
    2    1   -0.21643370E-02 -0.53017125E-09 -0.98390027E-03 -0.60403582E-09  0.17255164E-02 -0.96155001E-09
    3    1    0.21331058E-02  0.15320376E-08  0.10083317E-02  0.53508751E-09 -0.91083377E-03 -0.10251803E-08
    4    1   -0.11670322E-02 -0.61259938E-09  0.18583430E-02  0.69234515E-09  0.32529504E-02 -0.14716885E-09
    1    2   -0.12018627E-02 -0.20705036E-09 -0.86239569E-03  0.45404068E-09  0.54231847E-03 -0.14005667E-08
    2    2    0.87170781E-09 -0.74043298E-10 -0.13778611E-09 -0.86873200E-10  0.10905701E-08 -0.22380460E-09
    3    2   -0.13585921E-02  0.51987036E-09 -0.70675289E-03  0.38458087E-09  0.69795966E-03  0.12719559E-09
    4    2    0.27569730E-02  0.71696429E-09  0.12376624E-02 -0.34424918E-09 -0.22333448E-03  0.91070005E-09
    1    3    0.15552827E-02  0.64961338E-09  0.11850984E-02  0.11189329E-09 -0.73406933E-03  0.22902030E-10
    2    3   -0.20697776E-02  0.30257958E-09 -0.14921601E-02 -0.52662887E-10  0.12172557E-02  0.95481974E-09
    3    3    0.66968864E-09 -0.24644702E-09 -0.83386007E-10 -0.39832080E-10  0.12604787E-08 -0.32836869E-09
    4    3    0.42296336E-03 -0.12880298E-09 -0.30153497E-02  0.77895882E-10 -0.16207418E-02 -0.26432060E-09
    1    4    0.15936883E-03  0.86660668E-09  0.24449270E-03 -0.73514298E-09 -0.88404856E-04 -0.79707723E-09
    2    4    0.16840552E-02  0.81595870E-09  0.13343923E-02  0.62175319E-09 -0.53121547E-03 -0.44131166E-09
    3    4    0.57222729E-09 -0.93089583E-09  0.12189867E-09  0.19107899E-09 -0.33289671E-03  0.12029243E-08
    4    4    0.65352175E-09 -0.20879165E-09 -0.10982497E-08  0.33208898E-10  0.86075027E-10 -0.62093903E-09

    2   -1    1
    1    1    0.10143507E-09  0.10495260E-09 -0.85777893E-10 -0.85749932E-10  0.10143507E-09  0.10495260E-09
    2    1   -0.86861273E-03  0.48644842E-09 -0.57165851E-03 -0.12638963E-08  0.12542800E-02 -0.21133543E-08
    3    1    0.90270918E-03  0.68596044E-09  0.31844674E-03 -0.94220828E-09 -0.66717432E-03 -0.42133257E-09
    4    1   -0.16282442E-03 -0.66003852E-10  0.75539211E-03  0.68576957E-09 -0.67829828E-03  0.47152448E-09
    1    2   -0.47558802E-03  0.11259620E-08 -0.51003610E-03  0.11668972E-09  0.10942988E-02 -0.19684322E-08
    2    2    0.17193415E-09 -0.40421958E-10  0.30330322E-09 -0.13118795E-09  0.17193419E-09 -0.40421989E-10
    3    2    0.18528416E-04  0.58072238E-09  0.47248289E-04  0.13654982E-08  0.18529510E-04  0.74883101E-09
    4    2    0.76859982E-03 -0.51653330E-09 -0.53306397E-03  0.19145971E-09 -0.14989041E-03 -0.52189527E-10
    1    3    0.90023118E-03  0.96281678E-09  0.84159528E-03 -0.15354037E-09 -0.12226644E-02 -0.10551050E-08
    2    3    0.18039845E-04 -0.14535118E-09  0.14117878E-03  0.12091439E-08  0.18038861E-04  0.86992208E-09
    3    3    0.99531648E-09  0.40030455E-10  0.43101278E-09  0.12888546E-09  0.99531646E-09  0.40030461E-10
    4    3   -0.90818716E-03 -0.28476336E-09  0.58466625E-03 -0.82882203E-09  0.58575502E-03 -0.15462629E-09
    1    4   -0.67829958E-03 -0.10745828E-08  0.27393260E-03 -0.95919624E-09 -0.16282479E-03  0.16141891E-08
    2    4    0.93980294E-03  0.52982568E-09 -0.31473075E-03  0.15452633E-08 -0.55413492E-03 -0.77292356E-09
    3    4   -0.34147584E-03 -0.26746926E-09  0.34147729E-03 -0.47144713E-09  0.57701074E-03 -0.23496956E-09
    4    4    0.14022214E-09  0.28911052E-11 -0.69967878E-09 -0.14797254E-09  0.14022220E-09  0.28910998E-11

    2    0   -2
    1    1   -0.12870060E-08  0.25241392E-24  0.98717077E-09  0.81207948E-25  0.98717077E-09 -0.12358613E-24
    2    1   -0.91083272E-03 -0.46749330E-09 -0.10083334E-02 -0.16433241E-09  0.21331049E-02 -0.24048591E-09
    3    1   -0.16139801E-03  0.13820695E-08  0.38258614E-04 -0.11265830E-08  0.38258512E-04 -0.72583692E-09
    4    1   -0.91083501E-03  0.18041070E-09  0.21331063E-02  0.44795607E-09 -0.10083323E-02  0.20543807E-08
    1    2    0.82114717E-03  0.30109599E-09  0.21331049E-02  0.24048590E-09 -0.10083334E-02  0.16433240E-09
    2    2    0.10854910E-08  0.11017033E-24  0.15777710E-08 -0.10689106E-24  0.15777709E-08  0.74782514E-25
    3    2    0.75488590E-03  0.22902503E-09  0.11267416E-02 -0.10451556E-08 -0.20146959E-02  0.96996612E-09
    4    2    0.32899378E-02 -0.33197058E-09  0.11700387E-01  0.16011541E-08 -0.10627389E-01 -0.16903484E-08
    1    3   -0.16139690E-03  0.13506700E-08  0.38258512E-04  0.72583693E-09  0.38258614E-04  0.11265830E-08
    2    3   -0.97709730E-03 -0.51301522E-10 -0.20146959E-02 -0.96996611E-09  0.11267416E-02  0.10451556E-08
    3    3   -0.27136509E-09  0.38402115E-24  0.17359589E-08  0.30384304E-24  0.17359589E-08  0.43321733E-24
    4    3   -0.97709527E-03 -0.61726352E-09  0.11267424E-02 -0.32089967E-09 -0.20146960E-02 -0.17447913E-08
    1    4    0.82114850E-03 -0.10036517E-08 -0.10083323E-02 -0.20543807E-08  0.21331063E-02 -0.44795606E-09
    2    4    0.32899369E-02  0.11273291E-08 -0.10627389E-01  0.16903484E-08  0.11700387E-01 -0.16011541E-08
    3    4    0.75488572E-03  0.25954775E-09 -0.20146960E-02  0.17447913E-08  0.11267424E-02  0.32089967E-09
    4    4    0.62435788E-10  0.25911754E-24 -0.82972409E-09  0.16126385E-24 -0.82972413E-09  0.24563643E-24

    2    0   -1
    1    1   -0.33465107E-09 -0.50790721E-09  0.20800749E-09  0.23068765E-09  0.31035960E-10  0.24935875E-10
    2    1    0.91083612E-03 -0.69526668E-09  0.10083332E-02 -0.67693749E-09 -0.21331074E-02  0.14767814E-09
    3    1   -0.17255180E-02  0.22679582E-08 -0.98390068E-03  0.50543236E-09  0.21643384E-02 -0.83763680E-09
    4    1   -0.32529501E-02 -0.51706720E-09  0.18583428E-02 -0.19171717E-09  0.11670327E-02  0.18585265E-08
    1    2    0.73406852E-03  0.72466869E-09  0.11850976E-02  0.55738855E-09 -0.15552817E-02  0.43666972E-09
    2    2    0.12972593E-08 -0.64700900E-09  0.10184973E-08  0.28493330E-09  0.13729523E-08 -0.32647906E-09
    3    2   -0.12172576E-02 -0.32484405E-10 -0.14921616E-02 -0.88881887E-09  0.20697761E-02 -0.69174487E-09
    4    2    0.16207413E-02  0.93495662E-09 -0.30153479E-02  0.92763491E-09 -0.42296446E-03 -0.91829387E-09
    1    3   -0.54231765E-03  0.94797660E-09 -0.86239557E-03  0.24467078E-09  0.12018614E-02  0.33523259E-10
    2    3   -0.69796159E-03  0.44340415E-10 -0.70675285E-03 -0.28621613E-09  0.13585895E-02  0.13784239E-09
    3    3    0.77082341E-09 -0.25071641E-09  0.12580631E-08 -0.32852735E-09  0.14486108E-08 -0.45124079E-09
    4    3    0.22333407E-03  0.43616190E-09  0.12376600E-02  0.97328114E-10 -0.27569715E-02 -0.83565790E-09
    1    4    0.88404163E-04 -0.59626959E-09  0.24449281E-03 -0.14005706E-08 -0.15936879E-03 -0.42902144E-09
    2    4    0.33289527E-03  0.70339685E-09 -0.96077886E-09  0.20120538E-08  0.13788107E-08 -0.16931855E-08
    3    4    0.53121692E-03 -0.92515170E-09  0.13343934E-02  0.77302261E-09 -0.16840571E-02  0.18422205E-08
    4    4    0.35084087E-09 -0.70875588E-09 -0.35726435E-09 -0.67228499E-09 -0.76804216E-11 -0.79935077E-09

    2    0    0
    1    1    0.46707994E-09  0.25060525E-25  0.40077692E-09 -0.14418971E-24  0.46707994E-09  0.19924850E-24
    2    1    0.23266674E-02  0.66843226E-09  0.62758725E-03 -0.10910685E-08 -0.12540416E-02 -0.13624565E-08
    3    1    0.12540394E-02  0.62789661E-09  0.62758684E-03 -0.14127550E-09 -0.23266666E-02 -0.20596362E-09
    4    1    0.10260690E-01  0.61755465E-09  0.47296341E-02  0.10465200E-08 -0.10260690E-01  0.37262935E-09
    1    2   -0.12540416E-02  0.13624565E-08 -0.66512611E-03  0.72886549E-10  0.23266674E-02 -0.66843225E-09
    2    2    0.12817054E-08  0.49414192E-16 -0.49515904E-10 -0.49414192E-16  0.12817053E-08  0.12256701E-24
    3    2   -0.72404981E-09 -0.53761868E-09 -0.12313904E-03  0.49926807E-09 -0.11853341E-08  0.48775054E-09
    4    2    0.17807480E-02  0.11497475E-08 -0.55847532E-03  0.32505003E-09 -0.70812303E-03 -0.56026912E-09
    1    3   -0.23266666E-02  0.20596360E-09 -0.66512650E-03  0.57224749E-09  0.12540394E-02 -0.62789661E-09
    2    3   -0.11853341E-08 -0.48775054E-09 -0.12313872E-03  0.24807822E-09 -0.72404982E-09  0.53761868E-09
    3    3    0.24868546E-08  0.18815275E-24  0.70765693E-10 -0.49414192E-16  0.24868547E-08 -0.49414192E-16
    4    3    0.70812186E-03 -0.61205305E-09 -0.55847469E-03 -0.11169257E-08 -0.17807471E-02 -0.45904480E-09
    1    4   -0.10260690E-01 -0.37262934E-09  0.29232397E-02 -0.59437885E-09  0.10260690E-01 -0.61755465E-09
    2    4   -0.70812303E-03  0.56026913E-09  0.52093676E-03  0.14419572E-08  0.17807480E-02 -0.11497475E-08
    3    4   -0.17807471E-02  0.45904479E-09  0.52093750E-03  0.50220893E-10  0.70812186E-03  0.61205305E-09
    4    4   -0.24808066E-09  0.49414192E-16 -0.13882740E-08  0.19901771E-24 -0.24808066E-09 -0.49414192E-16

    2    1   -2
    1    1   -0.44108940E-09 -0.31435148E-09  0.32565909E-09  0.11652266E-09  0.32565909E-09  0.11652266E-09
    2    1    0.77738261E-03 -0.99773608E-10  0.12868771E-02 -0.87031825E-09 -0.77846874E-03 -0.41494476E-09
    3    1    0.16139823E-03  0.18851826E-08 -0.38259697E-04  0.30176017E-09 -0.38259751E-04 -0.21639350E-08
    4    1    0.77738065E-03  0.24821631E-09 -0.77846856E-03 -0.27569344E-09  0.12868783E-02  0.17939399E-08
    1    2    0.26344937E-03 -0.41845063E-09  0.72217288E-03 -0.46271397E-09 -0.49898540E-03 -0.70480080E-09
    2    2    0.42958911E-09 -0.26274054E-09  0.52960821E-09  0.21827456E-09  0.52960816E-09  0.21827455E-09
    3    2   -0.46734796E-03  0.64067681E-09 -0.13585919E-02 -0.77541647E-09  0.70675365E-03 -0.13369249E-09
    4    2    0.83153245E-03 -0.23286264E-09  0.60215768E-03  0.20909221E-08 -0.39477566E-03 -0.22943151E-08
    1    3    0.47769465E-04  0.18392312E-08 -0.19049698E-04  0.51916965E-09 -0.19049823E-04  0.13593627E-09
    2    3   -0.70827886E-03 -0.74036268E-11 -0.89605545E-03  0.24481057E-09  0.32510171E-03  0.42668649E-09
    3    3   -0.19334102E-09 -0.14355278E-09  0.53305681E-09 -0.60906882E-10  0.53305681E-09 -0.60906900E-10
    4    3   -0.70827688E-03 -0.60568297E-09  0.32510274E-03 -0.11934318E-08 -0.89605536E-03 -0.53467440E-09
    1    4    0.26345066E-03  0.55196250E-09 -0.49898551E-03 -0.48565851E-09  0.72217267E-03 -0.70113112E-09
    2    4    0.83153249E-03  0.54778044E-09 -0.39477582E-03  0.10430676E-08  0.60215813E-03 -0.13861446E-08
    3    4   -0.46734726E-03 -0.97086927E-09  0.70675406E-03  0.44053268E-09 -0.13585917E-02  0.16154109E-08
    4    4   -0.77805194E-10 -0.10041322E-09 -0.45031257E-09  0.67386786E-10 -0.45031255E-09  0.67386808E-10

    2    1   -1
    1    1    0.10143507E-09 -0.10495260E-09 -0.85777893E-10  0.85749932E-10  0.10143507E-09 -0.10495260E-09
    2    1    0.66717587E-03  0.11347328E-08  0.31844879E-03 -0.43989408E-09 -0.90271093E-03 -0.19596613E-08
    3    1   -0.12542818E-02  0.12239111E-08 -0.57165945E-03  0.11440580E-09  0.86861383E-03 -0.79401066E-09
    4    1    0.67829905E-03 -0.11667865E-08  0.75539203E-03  0.92392338E-10  0.16282426E-03  0.15219854E-08
    1    2    0.12226629E-02  0.97038769E-09  0.84159490E-03 -0.60274547E-09 -0.90022991E-03 -0.16294151E-08
    2    2    0.17193415E-09  0.40421992E-10  0.30330322E-09  0.13118792E-09  0.17193419E-09  0.40421989E-10
    3    2   -0.18041329E-04 -0.84840717E-09  0.14117864E-03  0.26171754E-09 -0.18040345E-04  0.16686610E-09
    4    2   -0.58575252E-03  0.13697204E-09  0.58466719E-03  0.13579033E-08  0.90818534E-03 -0.11657772E-08
    1    3   -0.10942972E-02  0.82380506E-09 -0.51003486E-03 -0.52406638E-09  0.47558634E-03 -0.28348796E-09
    2    3   -0.18528831E-04  0.10027612E-09  0.47248299E-04  0.10245455E-08 -0.18529926E-04  0.26838475E-09
    3    3    0.99531648E-09 -0.40030455E-10  0.43101278E-09 -0.12888549E-09  0.99531646E-09 -0.40030484E-10
    4    3    0.14988855E-03 -0.19895855E-09 -0.53306422E-03 -0.64805243E-09 -0.76859803E-03 -0.16645885E-09
    1    4    0.16282468E-03 -0.26428845E-09  0.27393242E-03 -0.11705889E-09  0.67829855E-03  0.27323990E-09
    2    4   -0.57701254E-03 -0.10135145E-08  0.34147641E-03  0.75772789E-09  0.34147769E-03 -0.54917073E-09
    3    4    0.55413710E-03  0.61414022E-09 -0.31472923E-03 -0.29256024E-09 -0.93980509E-03  0.74427728E-09
    4    4    0.14022214E-09 -0.28910786E-11 -0.69967878E-09  0.14797254E-09  0.14022220E-09 -0.28911264E-11

    2    2   -2
    1    1   -0.23582190E-17  0.99475699E-25 -0.97858889E-18 -0.47646591E-25 -0.27168173E-17 -0.13274993E-24
    2    1    0.45990246E-04  0.90665575E-09 -0.45989891E-04 -0.95871326E-09  0.19785867E-04 -0.26143869E-08
    3    1   -0.19786657E-04  0.17525497E-08 -0.45992401E-04 -0.34019177E-09 -0.45990847E-04 -0.86830290E-09
    4    1    0.45990750E-04  0.44450567E-09  0.19787442E-04 -0.31163661E-09 -0.45989871E-04  0.53380716E-09
    1    2   -0.45990246E-04  0.90665575E-09  0.45989891E-04 -0.95871326E-09 -0.19785867E-04 -0.26143869E-08
    2    2    0.28622937E-16  0.13399818E-24 -0.32092384E-16 -0.35106602E-24 -0.17347235E-17 -0.81203944E-25
    3    2   -0.65777846E-04 -0.36312496E-09  0.63290942E-09  0.80248696E-09 -0.65777104E-04  0.11713028E-08
    4    2   -0.28236132E-09 -0.42102036E-09  0.65777532E-04  0.12730948E-08 -0.65778510E-04 -0.55002646E-09
    1    3    0.19786657E-04  0.17525497E-08  0.45992401E-04 -0.34019177E-09  0.45990847E-04 -0.86830289E-09
    2    3    0.65777846E-04 -0.36312496E-09 -0.63290941E-09  0.80248696E-09  0.65777104E-04  0.11713028E-08
    3    3    0.50493470E-17  0.58815618E-25 -0.27885742E-18 -0.58519399E-25  0.14156645E-16 -0.11920467E-24
    4    3    0.65777364E-04  0.78890602E-10  0.65776778E-04 -0.23329264E-09  0.85714816E-09 -0.15332177E-09
    1    4   -0.45990750E-04  0.44450568E-09 -0.19787442E-04 -0.31163661E-09  0.45989871E-04  0.53380716E-09
    2    4    0.28236133E-09 -0.42102036E-09 -0.65777532E-04  0.12730948E-08  0.65778510E-04 -0.55002647E-09
    3    4   -0.65777364E-04  0.78890602E-10 -0.65776778E-04 -0.23329263E-09 -0.85714816E-09 -0.15332177E-09
    4    4    0.28726727E-16  0.25763570E-24 -0.90808475E-17 -0.13977920E-25 -0.68351038E-17  0.86508658E-25

    3   -1   -1
    1    1   -0.14702157E-08 -0.71919756E-10  0.84331176E-09  0.36028641E-10  0.86287638E-09  0.19901287E-09
    2    1    0.96461162E-03 -0.99206000E-09 -0.96461068E-03 -0.39801210E-09  0.19336466E-02 -0.13540913E-08
    3    1   -0.19336479E-02  0.11665020E-08 -0.96461226E-03  0.16782524E-09 -0.96461159E-03  0.26285933E-09
    4    1    0.96460820E-03 -0.65514350E-09  0.19336495E-02 -0.14818046E-09 -0.96460859E-03  0.12091743E-08
    1    2   -0.15073971E-03 -0.12048788E-09  0.15073950E-03  0.62457089E-10  0.14677368E-02 -0.76673498E-09
    2    2    0.69979494E-09  0.67238691E-09  0.72716133E-09  0.60100916E-10  0.12205610E-08 -0.21300243E-09
    3    2   -0.12171106E-02  0.18997888E-08 -0.16811466E-02  0.94222301E-09 -0.36414843E-03  0.10710812E-08
    4    2    0.16811474E-02 -0.65579422E-10  0.12171113E-02  0.30718225E-09 -0.36415047E-03  0.56390091E-10
    1    3   -0.14677365E-02  0.68432821E-09  0.15073968E-03 -0.38392781E-09  0.15073990E-03 -0.69552604E-10
    2    3    0.36414805E-03 -0.14459017E-09 -0.16811467E-02  0.26272473E-09  0.12171106E-02  0.10930761E-08
    3    3   -0.10064486E-08 -0.11758965E-09  0.81731389E-09  0.14810374E-09  0.11475507E-08 -0.49665376E-09
    4    3    0.36415029E-03  0.10579491E-08  0.12171102E-02  0.39122109E-09 -0.16811468E-02 -0.39499890E-09
    1    4   -0.15073965E-03  0.14009411E-09  0.14677372E-02 -0.37392196E-09  0.15073930E-03  0.33802066E-09
    2    4    0.16811469E-02  0.53735020E-10 -0.36414888E-03  0.80519358E-09  0.12171119E-02 -0.29696974E-09
    3    4   -0.12171092E-02 -0.74089958E-09 -0.36414821E-03 -0.22372421E-09 -0.16811475E-02  0.56492705E-09
    4    4    0.84037078E-10 -0.15417977E-09 -0.78373822E-09  0.87560991E-10  0.49301772E-09 -0.84813239E-09
