## written on 24Nov2020 at 15:36:50  with use_ws_distance=.true.
    0    0   -5    1    1
    2
    0    0    0
    0    0   10
    0    0   -5    1    2
    2
    0    0    0
    0    0   10
    0    0   -5    1    3
    2
    0    0    0
    0    0   10
    0    0   -5    1    4
    2
    0    0    0
    0    0   10
    0    0   -5    1    5
    2
    0    0    0
    0    0   10
    0    0   -5    1    6
    1
    0    0   10
    0    0   -5    1    7
    1
    0    0   10
    0    0   -5    1    8
    1
    0    0   10
    0    0   -5    1    9
    1
    0    0   10
    0    0   -5    1   10
    1
    0    0   10
    0    0   -5    1   11
    1
    0    0   10
    0    0   -5    1   12
    1
    0    0   10
    0    0   -5    1   13
    1
    0    0   10
    0    0   -5    1   14
    1
    0    0   10
    0    0   -5    1   15
    1
    0    0   10
    0    0   -5    1   16
    1
    0    0   10
    0    0   -5    1   17
    1
    0    0   10
    0    0   -5    1   18
    1
    0    0   10
    0    0   -5    1   19
    1
    0    0   10
    0    0   -5    1   20
    1
    0    0   10
    0    0   -5    1   21
    1
    0    0    0
    0    0   -5    1   22
    1
    0    0    0
    0    0   -5    1   23
    1
    0    0    0
    0    0   -5    1   24
    1
    0    0    0
    0    0   -5    1   25
    1
    0    0    0
    0    0   -5    1   26
    1
    0    0    0
    0    0   -5    1   27
    1
    0    0    0
    0    0   -5    1   28
    1
    0    0    0
    0    0   -5    1   29
    1
    0    0    0
    0    0   -5    1   30
    1
    0    0    0
    0    0   -5    1   31
    1
    0    0   10
    0    0   -5    1   32
    1
    0    0   10
    0    0   -5    1   33
    1
    0    0   10
    0    0   -5    1   34
    1
    0    0   10
    0    0   -5    1   35
    1
    0    0   10
    0    0   -5    1   36
    1
    0    0   10
    0    0   -5    1   37
    1
    0    0   10
    0    0   -5    1   38
    1
    0    0   10
    0    0   -5    1   39
    1
    0    0   10
    0    0   -5    1   40
    1
    0    0   10
    0    0   -5    1   41
    1
    0    0   10
    0    0   -5    1   42
    1
    0    0    0
    0    0   -5    1   43
    1
    0    0   10
    0    0   -5    1   44
    1
    0    0    0
    0    0   -5    1   45
    1
    0    0   10
    0    0   -5    1   46
    1
    0    0    0
    0    0   -5    1   47
    1
    0    0   10
    0    0   -5    1   48
    1
    0    0    0
    0    0   -5    1   49
    1
    0    0   10
    0    0   -5    1   50
    1
    0    0    0
    0    0   -5    2    1
    2
    0    0    0
    0    0   10
    0    0   -5    2    2
    2
    0    0    0
    0    0   10
    0    0   -5    2    3
    2
    0    0    0
    0    0   10
    0    0   -5    2    4
    2
    0    0    0
    0    0   10
    0    0   -5    2    5
    2
    0    0    0
    0    0   10
    0    0   -5    2    6
    1
    0    0   10
    0    0   -5    2    7
    1
    0    0   10
    0    0   -5    2    8
    1
    0    0   10
    0    0   -5    2    9
    1
    0    0   10
    0    0   -5    2   10
    1
    0    0   10
    0    0   -5    2   11
    1
    0    0   10
    0    0   -5    2   12
    1
    0    0   10
    0    0   -5    2   13
    1
    0    0   10
    0    0   -5    2   14
    1
    0    0   10
    0    0   -5    2   15
    1
    0    0   10
    0    0   -5    2   16
    1
    0    0   10
    0    0   -5    2   17
    1
    0    0   10
    0    0   -5    2   18
    1
    0    0   10
    0    0   -5    2   19
    1
    0    0   10
    0    0   -5    2   20
    1
    0    0   10
    0    0   -5    2   21
    1
    0    0    0
    0    0   -5    2   22
    1
    0    0    0
    0    0   -5    2   23
    1
    0    0    0
    0    0   -5    2   24
    1
    0    0    0
    0    0   -5    2   25
    1
    0    0    0
    0    0   -5    2   26
    1
    0    0    0
    0    0   -5    2   27
    1
    0    0    0
    0    0   -5    2   28
    1
    0    0    0
    0    0   -5    2   29
    1
    0    0    0
    0    0   -5    2   30
    1
    0    0    0
    0    0   -5    2   31
    1
    0    0   10
    0    0   -5    2   32
    1
    0    0   10
    0    0   -5    2   33
    1
    0    0   10
    0    0   -5    2   34
    1
    0    0   10
    0    0   -5    2   35
    1
    0    0   10
    0    0   -5    2   36
    1
    0    0   10
    0    0   -5    2   37
    1
    0    0   10
    0    0   -5    2   38
    1
    0    0   10
    0    0   -5    2   39
    1
    0    0   10
    0    0   -5    2   40
    1
    0    0   10
    0    0   -5    2   41
    1
    0    0   10
    0    0   -5    2   42
    1
    0    0    0
    0    0   -5    2   43
    1
    0    0   10
    0    0   -5    2   44
    1
    0    0    0
    0    0   -5    2   45
    1
    0    0   10
    0    0   -5    2   46
    1
    0    0    0
    0    0   -5    2   47
    1
    0    0   10
    0    0   -5    2   48
    1
    0    0    0
    0    0   -5    2   49
    1
    0    0   10
    0    0   -5    2   50
    1
    0    0    0
    0    0   -5    3    1
    2
    0    0    0
    0    0   10
    0    0   -5    3    2
    2
    0    0    0
    0    0   10
    0    0   -5    3    3
    2
    0    0    0
    0    0   10
    0    0   -5    3    4
    2
    0    0    0
    0    0   10
    0    0   -5    3    5
    2
    0    0    0
    0    0   10
    0    0   -5    3    6
    1
    0    0   10
    0    0   -5    3    7
    1
    0    0   10
    0    0   -5    3    8
    1
    0    0   10
    0    0   -5    3    9
    1
    0    0   10
    0    0   -5    3   10
    1
    0    0   10
    0    0   -5    3   11
    1
    0    0   10
    0    0   -5    3   12
    1
    0    0   10
    0    0   -5    3   13
    1
    0    0   10
    0    0   -5    3   14
    1
    0    0   10
    0    0   -5    3   15
    1
    0    0   10
    0    0   -5    3   16
    1
    0    0   10
    0    0   -5    3   17
    1
    0    0   10
    0    0   -5    3   18
    1
    0    0   10
    0    0   -5    3   19
    1
    0    0   10
    0    0   -5    3   20
    1
    0    0   10
    0    0   -5    3   21
    1
    0    0    0
    0    0   -5    3   22
    1
    0    0    0
    0    0   -5    3   23
    1
    0    0    0
    0    0   -5    3   24
    1
    0    0    0
    0    0   -5    3   25
    1
    0    0    0
    0    0   -5    3   26
    1
    0    0    0
    0    0   -5    3   27
    1
    0    0    0
    0    0   -5    3   28
    1
    0    0    0
    0    0   -5    3   29
    1
    0    0    0
    0    0   -5    3   30
    1
    0    0    0
    0    0   -5    3   31
    1
    0    0   10
    0    0   -5    3   32
    1
    0    0   10
    0    0   -5    3   33
    1
    0    0   10
    0    0   -5    3   34
    1
    0    0   10
    0    0   -5    3   35
    1
    0    0   10
    0    0   -5    3   36
    1
    0    0   10
    0    0   -5    3   37
    1
    0    0   10
    0    0   -5    3   38
    1
    0    0   10
    0    0   -5    3   39
    1
    0    0   10
    0    0   -5    3   40
    1
    0    0   10
    0    0   -5    3   41
    1
    0    0   10
    0    0   -5    3   42
    1
    0    0    0
    0    0   -5    3   43
    1
    0    0   10
    0    0   -5    3   44
    1
    0    0    0
    0    0   -5    3   45
    1
    0    0   10
    0    0   -5    3   46
    1
    0    0    0
    0    0   -5    3   47
    1
    0    0   10
    0    0   -5    3   48
    1
    0    0    0
    0    0   -5    3   49
    1
    0    0   10
    0    0   -5    3   50
    1
    0    0    0
    0    0   -5    4    1
    2
    0    0    0
    0    0   10
    0    0   -5    4    2
    2
    0    0    0
    0    0   10
    0    0   -5    4    3
    2
    0    0    0
    0    0   10
    0    0   -5    4    4
    2
    0    0    0
    0    0   10
    0    0   -5    4    5
    2
    0    0    0
    0    0   10
    0    0   -5    4    6
    1
    0    0   10
    0    0   -5    4    7
    1
    0    0   10
    0    0   -5    4    8
    1
    0    0   10
    0    0   -5    4    9
    1
    0    0   10
    0    0   -5    4   10
    1
    0    0   10
    0    0   -5    4   11
    1
    0    0   10
    0    0   -5    4   12
    1
    0    0   10
    0    0   -5    4   13
    1
    0    0   10
    0    0   -5    4   14
    1
    0    0   10
    0    0   -5    4   15
    1
    0    0   10
    0    0   -5    4   16
    1
    0    0   10
    0    0   -5    4   17
    1
    0    0   10
    0    0   -5    4   18
    1
    0    0   10
    0    0   -5    4   19
    1
    0    0   10
    0    0   -5    4   20
    1
    0    0   10
    0    0   -5    4   21
    1
    0    0    0
    0    0   -5    4   22
    1
    0    0    0
    0    0   -5    4   23
    1
    0    0    0
    0    0   -5    4   24
    1
    0    0    0
    0    0   -5    4   25
    1
    0    0    0
    0    0   -5    4   26
    1
    0    0    0
    0    0   -5    4   27
    1
    0    0    0
    0    0   -5    4   28
    1
    0    0    0
    0    0   -5    4   29
    1
    0    0    0
    0    0   -5    4   30
    1
    0    0    0
    0    0   -5    4   31
    1
    0    0   10
    0    0   -5    4   32
    1
    0    0   10
    0    0   -5    4   33
    1
    0    0   10
    0    0   -5    4   34
    1
    0    0   10
    0    0   -5    4   35
    1
    0    0   10
    0    0   -5    4   36
    1
    0    0   10
    0    0   -5    4   37
    1
    0    0   10
    0    0   -5    4   38
    1
    0    0   10
    0    0   -5    4   39
    1
    0    0   10
    0    0   -5    4   40
    1
    0    0   10
    0    0   -5    4   41
    1
    0    0   10
    0    0   -5    4   42
    1
    0    0    0
    0    0   -5    4   43
    1
    0    0   10
    0    0   -5    4   44
    1
    0    0    0
    0    0   -5    4   45
    1
    0    0   10
    0    0   -5    4   46
    1
    0    0    0
    0    0   -5    4   47
    1
    0    0   10
    0    0   -5    4   48
    1
    0    0    0
    0    0   -5    4   49
    1
    0    0   10
    0    0   -5    4   50
    1
    0    0    0
    0    0   -5    5    1
    2
    0    0    0
    0    0   10
    0    0   -5    5    2
    2
    0    0    0
    0    0   10
    0    0   -5    5    3
    2
    0    0    0
    0    0   10
    0    0   -5    5    4
    2
    0    0    0
    0    0   10
    0    0   -5    5    5
    2
    0    0    0
    0    0   10
    0    0   -5    5    6
    1
    0    0   10
    0    0   -5    5    7
    1
    0    0   10
    0    0   -5    5    8
    1
    0    0   10
    0    0   -5    5    9
    1
    0    0   10
    0    0   -5    5   10
    1
    0    0   10
    0    0   -5    5   11
    1
    0    0   10
    0    0   -5    5   12
    1
    0    0   10
    0    0   -5    5   13
    1
    0    0   10
    0    0   -5    5   14
    1
    0    0   10
    0    0   -5    5   15
    1
    0    0   10
    0    0   -5    5   16
    1
    0    0   10
    0    0   -5    5   17
    1
    0    0   10
    0    0   -5    5   18
    1
    0    0   10
    0    0   -5    5   19
    1
    0    0   10
    0    0   -5    5   20
    1
    0    0   10
    0    0   -5    5   21
    1
    0    0    0
    0    0   -5    5   22
    1
    0    0    0
    0    0   -5    5   23
    1
    0    0    0
    0    0   -5    5   24
    1
    0    0    0
    0    0   -5    5   25
    1
    0    0    0
    0    0   -5    5   26
    1
    0    0    0
    0    0   -5    5   27
    1
    0    0    0
    0    0   -5    5   28
    1
    0    0    0
    0    0   -5    5   29
    1
    0    0    0
    0    0   -5    5   30
    1
    0    0    0
    0    0   -5    5   31
    1
    0    0   10
    0    0   -5    5   32
    1
    0    0   10
    0    0   -5    5   33
    1
    0    0   10
    0    0   -5    5   34
    1
    0    0   10
    0    0   -5    5   35
    1
    0    0   10
    0    0   -5    5   36
    1
    0    0   10
    0    0   -5    5   37
    1
    0    0   10
    0    0   -5    5   38
    1
    0    0   10
    0    0   -5    5   39
    1
    0    0   10
    0    0   -5    5   40
    1
    0    0   10
    0    0   -5    5   41
    1
    0    0   10
    0    0   -5    5   42
    1
    0    0    0
    0    0   -5    5   43
    1
    0    0   10
    0    0   -5    5   44
    1
    0    0    0
    0    0   -5    5   45
    1
    0    0   10
    0    0   -5    5   46
    1
    0    0    0
    0    0   -5    5   47
    1
    0    0   10
    0    0   -5    5   48
    1
    0    0    0
    0    0   -5    5   49
    1
    0    0   10
    0    0   -5    5   50
    1
    0    0    0
    0    0   -5    6    1
    1
    0    0    0
    0    0   -5    6    2
    1
    0    0    0
    0    0   -5    6    3
    1
    0    0    0
    0    0   -5    6    4
    1
    0    0    0
    0    0   -5    6    5
    1
    0    0    0
    0    0   -5    6    6
    2
    0    0    0
    0    0   10
    0    0   -5    6    7
    1
    0    0    0
    0    0   -5    6    8
    2
    0    0    0
    0    0   10
    0    0   -5    6    9
    2
    0    0    0
    0    0   10
    0    0   -5    6   10
    2
    0    0    0
    0    0   10
    0    0   -5    6   11
    1
    0    0    0
    0    0   -5    6   12
    1
    0    0    0
    0    0   -5    6   13
    1
    0    0    0
    0    0   -5    6   14
    1
    0    0    0
    0    0   -5    6   15
    1
    0    0    0
    0    0   -5    6   16
    1
    0    0    0
    0    0   -5    6   17
    1
    0    0    0
    0    0   -5    6   18
    1
    0    0    0
    0    0   -5    6   19
    1
    0    0    0
    0    0   -5    6   20
    1
    0    0    0
    0    0   -5    6   21
    1
    0    0    0
    0    0   -5    6   22
    1
    0    0    0
    0    0   -5    6   23
    1
    0    0    0
    0    0   -5    6   24
    1
    0    0    0
    0    0   -5    6   25
    1
    0    0    0
    0    0   -5    6   26
    1
    0    0    0
    0    0   -5    6   27
    1
    0    0    0
    0    0   -5    6   28
    1
    0    0    0
    0    0   -5    6   29
    1
    0    0    0
    0    0   -5    6   30
    1
    0    0    0
    0    0   -5    6   31
    1
    0    0   10
    0    0   -5    6   32
    1
    0    0    0
    0    0   -5    6   33
    1
    0    0   10
    0    0   -5    6   34
    1
    0    0    0
    0    0   -5    6   35
    1
    0    0   10
    0    0   -5    6   36
    1
    0    0    0
    0    0   -5    6   37
    1
    0    0   10
    0    0   -5    6   38
    1
    0    0    0
    0    0   -5    6   39
    1
    0    0   10
    0    0   -5    6   40
    1
    0    0    0
    0    0   -5    6   41
    1
    0    0    0
    0    0   -5    6   42
    1
    0    0    0
    0    0   -5    6   43
    1
    0    0    0
    0    0   -5    6   44
    1
    0    0    0
    0    0   -5    6   45
    1
    0    0    0
    0    0   -5    6   46
    1
    0    0    0
    0    0   -5    6   47
    1
    0    0    0
    0    0   -5    6   48
    1
    0    0    0
    0    0   -5    6   49
    1
    0    0    0
    0    0   -5    6   50
    1
    0    0    0
    0    0   -5    7    1
    1
    0    0    0
    0    0   -5    7    2
    1
    0    0    0
    0    0   -5    7    3
    1
    0    0    0
    0    0   -5    7    4
    1
    0    0    0
    0    0   -5    7    5
    1
    0    0    0
    0    0   -5    7    6
    1
    0    0   10
    0    0   -5    7    7
    2
    0    0    0
    0    0   10
    0    0   -5    7    8
    1
    0    0   10
    0    0   -5    7    9
    1
    0    0   10
    0    0   -5    7   10
    1
    0    0   10
    0    0   -5    7   11
    1
    0    0    0
    0    0   -5    7   12
    1
    0    0    0
    0    0   -5    7   13
    1
    0    0    0
    0    0   -5    7   14
    1
    0    0    0
    0    0   -5    7   15
    1
    0    0    0
    0    0   -5    7   16
    1
    0    0    0
    0    0   -5    7   17
    1
    0    0    0
    0    0   -5    7   18
    1
    0    0    0
    0    0   -5    7   19
    1
    0    0    0
    0    0   -5    7   20
    1
    0    0    0
    0    0   -5    7   21
    1
    0    0    0
    0    0   -5    7   22
    1
    0    0    0
    0    0   -5    7   23
    1
    0    0    0
    0    0   -5    7   24
    1
    0    0    0
    0    0   -5    7   25
    1
    0    0    0
    0    0   -5    7   26
    1
    0    0    0
    0    0   -5    7   27
    1
    0    0    0
    0    0   -5    7   28
    1
    0    0    0
    0    0   -5    7   29
    1
    0    0    0
    0    0   -5    7   30
    1
    0    0    0
    0    0   -5    7   31
    1
    0    0   10
    0    0   -5    7   32
    1
    0    0    0
    0    0   -5    7   33
    1
    0    0   10
    0    0   -5    7   34
    1
    0    0    0
    0    0   -5    7   35
    1
    0    0   10
    0    0   -5    7   36
    1
    0    0    0
    0    0   -5    7   37
    1
    0    0   10
    0    0   -5    7   38
    1
    0    0    0
    0    0   -5    7   39
    1
    0    0   10
    0    0   -5    7   40
    1
    0    0    0
    0    0   -5    7   41
    1
    0    0    0
    0    0   -5    7   42
    1
    0    0    0
    0    0   -5    7   43
    1
    0    0    0
    0    0   -5    7   44
    1
    0    0    0
    0    0   -5    7   45
    1
    0    0    0
    0    0   -5    7   46
    1
    0    0    0
    0    0   -5    7   47
    1
    0    0    0
    0    0   -5    7   48
    1
    0    0    0
    0    0   -5    7   49
    1
    0    0    0
    0    0   -5    7   50
    1
    0    0    0
    0    0   -5    8    1
    1
    0    0    0
    0    0   -5    8    2
    1
    0    0    0
    0    0   -5    8    3
    1
    0    0    0
    0    0   -5    8    4
    1
    0    0    0
    0    0   -5    8    5
    1
    0    0    0
    0    0   -5    8    6
    2
    0    0    0
    0    0   10
    0    0   -5    8    7
    1
    0    0    0
    0    0   -5    8    8
    2
    0    0    0
    0    0   10
    0    0   -5    8    9
    2
    0    0    0
    0    0   10
    0    0   -5    8   10
    2
    0    0    0
    0    0   10
    0    0   -5    8   11
    1
    0    0    0
    0    0   -5    8   12
    1
    0    0    0
    0    0   -5    8   13
    1
    0    0    0
    0    0   -5    8   14
    1
    0    0    0
    0    0   -5    8   15
    1
    0    0    0
    0    0   -5    8   16
    1
    0    0    0
    0    0   -5    8   17
    1
    0    0    0
    0    0   -5    8   18
    1
    0    0    0
    0    0   -5    8   19
    1
    0    0    0
    0    0   -5    8   20
    1
    0    0    0
    0    0   -5    8   21
    1
    0    0    0
    0    0   -5    8   22
    1
    0    0    0
    0    0   -5    8   23
    1
    0    0    0
    0    0   -5    8   24
    1
    0    0    0
    0    0   -5    8   25
    1
    0    0    0
    0    0   -5    8   26
    1
    0    0    0
    0    0   -5    8   27
    1
    0    0    0
    0    0   -5    8   28
    1
    0    0    0
    0    0   -5    8   29
    1
    0    0    0
    0    0   -5    8   30
    1
    0    0    0
    0    0   -5    8   31
    1
    0    0   10
    0    0   -5    8   32
    1
    0    0    0
    0    0   -5    8   33
    1
    0    0   10
    0    0   -5    8   34
    1
    0    0    0
    0    0   -5    8   35
    1
    0    0   10
    0    0   -5    8   36
    1
    0    0    0
    0    0   -5    8   37
    1
    0    0   10
    0    0   -5    8   38
    1
    0    0    0
    0    0   -5    8   39
    1
    0    0   10
    0    0   -5    8   40
    1
    0    0    0
    0    0   -5    8   41
    1
    0    0    0
    0    0   -5    8   42
    1
    0    0    0
    0    0   -5    8   43
    1
    0    0    0
    0    0   -5    8   44
    1
    0    0    0
    0    0   -5    8   45
    1
    0    0    0
    0    0   -5    8   46
    1
    0    0    0
    0    0   -5    8   47
    1
    0    0    0
    0    0   -5    8   48
    1
    0    0    0
    0    0   -5    8   49
    1
    0    0    0
    0    0   -5    8   50
    1
    0    0    0
    0    0   -5    9    1
    1
    0    0    0
    0    0   -5    9    2
    1
    0    0    0
    0    0   -5    9    3
    1
    0    0    0
    0    0   -5    9    4
    1
    0    0    0
    0    0   -5    9    5
    1
    0    0    0
    0    0   -5    9    6
    2
    0    0    0
    0    0   10
    0    0   -5    9    7
    1
    0    0    0
    0    0   -5    9    8
    2
    0    0    0
    0    0   10
    0    0   -5    9    9
    2
    0    0    0
    0    0   10
    0    0   -5    9   10
    2
    0    0    0
    0    0   10
    0    0   -5    9   11
    1
    0    0    0
    0    0   -5    9   12
    1
    0    0    0
    0    0   -5    9   13
    1
    0    0    0
    0    0   -5    9   14
    1
    0    0    0
    0    0   -5    9   15
    1
    0    0    0
    0    0   -5    9   16
    1
    0    0    0
    0    0   -5    9   17
    1
    0    0    0
    0    0   -5    9   18
    1
    0    0    0
    0    0   -5    9   19
    1
    0    0    0
    0    0   -5    9   20
    1
    0    0    0
    0    0   -5    9   21
    1
    0    0    0
    0    0   -5    9   22
    1
    0    0    0
    0    0   -5    9   23
    1
    0    0    0
    0    0   -5    9   24
    1
    0    0    0
    0    0   -5    9   25
    1
    0    0    0
    0    0   -5    9   26
    1
    0    0    0
    0    0   -5    9   27
    1
    0    0    0
    0    0   -5    9   28
    1
    0    0    0
    0    0   -5    9   29
    1
    0    0    0
    0    0   -5    9   30
    1
    0    0    0
    0    0   -5    9   31
    1
    0    0   10
    0    0   -5    9   32
    1
    0    0    0
    0    0   -5    9   33
    1
    0    0   10
    0    0   -5    9   34
    1
    0    0    0
    0    0   -5    9   35
    1
    0    0   10
    0    0   -5    9   36
    1
    0    0    0
    0    0   -5    9   37
    1
    0    0   10
    0    0   -5    9   38
    1
    0    0    0
    0    0   -5    9   39
    1
    0    0   10
    0    0   -5    9   40
    1
    0    0    0
    0    0   -5    9   41
    1
    0    0    0
    0    0   -5    9   42
    1
    0    0    0
    0    0   -5    9   43
    1
    0    0    0
    0    0   -5    9   44
    1
    0    0    0
    0    0   -5    9   45
    1
    0    0    0
    0    0   -5    9   46
    1
    0    0    0
    0    0   -5    9   47
    1
    0    0    0
    0    0   -5    9   48
    1
    0    0    0
    0    0   -5    9   49
    1
    0    0    0
    0    0   -5    9   50
    1
    0    0    0
    0    0   -5   10    1
    1
    0    0    0
    0    0   -5   10    2
    1
    0    0    0
    0    0   -5   10    3
    1
    0    0    0
    0    0   -5   10    4
    1
    0    0    0
    0    0   -5   10    5
    1
    0    0    0
    0    0   -5   10    6
    2
    0    0    0
    0    0   10
    0    0   -5   10    7
    1
    0    0    0
    0    0   -5   10    8
    2
    0    0    0
    0    0   10
    0    0   -5   10    9
    2
    0    0    0
    0    0   10
    0    0   -5   10   10
    2
    0    0    0
    0    0   10
    0    0   -5   10   11
    1
    0    0    0
    0    0   -5   10   12
    1
    0    0    0
    0    0   -5   10   13
    1
    0    0    0
    0    0   -5   10   14
    1
    0    0    0
    0    0   -5   10   15
    1
    0    0    0
    0    0   -5   10   16
    1
    0    0    0
    0    0   -5   10   17
    1
    0    0    0
    0    0   -5   10   18
    1
    0    0    0
    0    0   -5   10   19
    1
    0    0    0
    0    0   -5   10   20
    1
    0    0    0
    0    0   -5   10   21
    1
    0    0    0
    0    0   -5   10   22
    1
    0    0    0
    0    0   -5   10   23
    1
    0    0    0
    0    0   -5   10   24
    1
    0    0    0
    0    0   -5   10   25
    1
    0    0    0
    0    0   -5   10   26
    1
    0    0    0
    0    0   -5   10   27
    1
    0    0    0
    0    0   -5   10   28
    1
    0    0    0
    0    0   -5   10   29
    1
    0    0    0
    0    0   -5   10   30
    1
    0    0    0
    0    0   -5   10   31
    1
    0    0   10
    0    0   -5   10   32
    1
    0    0    0
    0    0   -5   10   33
    1
    0    0   10
    0    0   -5   10   34
    1
    0    0    0
    0    0   -5   10   35
    1
    0    0   10
    0    0   -5   10   36
    1
    0    0    0
    0    0   -5   10   37
    1
    0    0   10
    0    0   -5   10   38
    1
    0    0    0
    0    0   -5   10   39
    1
    0    0   10
    0    0   -5   10   40
    1
    0    0    0
    0    0   -5   10   41
    1
    0    0    0
    0    0   -5   10   42
    1
    0    0    0
    0    0   -5   10   43
    1
    0    0    0
    0    0   -5   10   44
    1
    0    0    0
    0    0   -5   10   45
    1
    0    0    0
    0    0   -5   10   46
    1
    0    0    0
    0    0   -5   10   47
    1
    0    0    0
    0    0   -5   10   48
    1
    0    0    0
    0    0   -5   10   49
    1
    0    0    0
    0    0   -5   10   50
    1
    0    0    0
    0    0   -5   11    1
    1
    0    0    0
    0    0   -5   11    2
    1
    0    0    0
    0    0   -5   11    3
    1
    0    0    0
    0    0   -5   11    4
    1
    0    0    0
    0    0   -5   11    5
    1
    0    0    0
    0    0   -5   11    6
    1
    0    0   10
    0    0   -5   11    7
    1
    0    0   10
    0    0   -5   11    8
    1
    0    0   10
    0    0   -5   11    9
    1
    0    0   10
    0    0   -5   11   10
    1
    0    0   10
    0    0   -5   11   11
    2
    0    0    0
    0    0   10
    0    0   -5   11   12
    1
    0    0   10
    0    0   -5   11   13
    1
    0    0   10
    0    0   -5   11   14
    1
    0    0    0
    0    0   -5   11   15
    1
    0    0   10
    0    0   -5   11   16
    1
    0    0   10
    0    0   -5   11   17
    1
    0    0   10
    0    0   -5   11   18
    1
    0    0   10
    0    0   -5   11   19
    1
    0    0   10
    0    0   -5   11   20
    1
    0    0    0
    0    0   -5   11   21
    1
    0    0    0
    0    0   -5   11   22
    1
    0    0    0
    0    0   -5   11   23
    1
    0    0    0
    0    0   -5   11   24
    1
    0    0    0
    0    0   -5   11   25
    1
    0    0    0
    0    0   -5   11   26
    1
    0    0    0
    0    0   -5   11   27
    1
    0    0    0
    0    0   -5   11   28
    1
    0    0    0
    0    0   -5   11   29
    1
    0    0    0
    0    0   -5   11   30
    1
    0    0    0
    0    0   -5   11   31
    1
    0    0   10
    0    0   -5   11   32
    1
    0    0    0
    0    0   -5   11   33
    1
    0    0   10
    0    0   -5   11   34
    1
    0    0    0
    0    0   -5   11   35
    1
    0    0   10
    0    0   -5   11   36
    1
    0    0    0
    0    0   -5   11   37
    1
    0    0   10
    0    0   -5   11   38
    1
    0    0    0
    0    0   -5   11   39
    1
    0    0   10
    0    0   -5   11   40
    1
    0    0    0
    0    0   -5   11   41
    1
    0    0   10
    0    0   -5   11   42
    1
    0    0    0
    0    0   -5   11   43
    1
    0    0   10
    0    0   -5   11   44
    1
    0    0    0
    0    0   -5   11   45
    1
    0    0   10
    0    0   -5   11   46
    1
    0    0    0
    0    0   -5   11   47
    1
    0    0   10
    0    0   -5   11   48
    1
    0    0    0
    0    0   -5   11   49
    1
    0    0   10
    0    0   -5   11   50
    1
    0    0    0
    0    0   -5   12    1
    1
    0    0    0
    0    0   -5   12    2
    1
    0    0    0
    0    0   -5   12    3
    1
    0    0    0
    0    0   -5   12    4
    1
    0    0    0
    0    0   -5   12    5
    1
    0    0    0
    0    0   -5   12    6
    1
    0    0   10
    0    0   -5   12    7
    1
    0    0   10
    0    0   -5   12    8
    1
    0    0   10
    0    0   -5   12    9
    1
    0    0   10
    0    0   -5   12   10
    1
    0    0   10
    0    0   -5   12   11
    1
    0    0    0
    0    0   -5   12   12
    2
    0    0    0
    0    0   10
    0    0   -5   12   13
    1
    0    0   10
    0    0   -5   12   14
    1
    0    0    0
    0    0   -5   12   15
    1
    0    0   10
    0    0   -5   12   16
    1
    0    0    0
    0    0   -5   12   17
    1
    0    0    0
    0    0   -5   12   18
    1
    0    0    0
    0    0   -5   12   19
    1
    0    0    0
    0    0   -5   12   20
    1
    0    0    0
    0    0   -5   12   21
    1
    0    0    0
    0    0   -5   12   22
    1
    0    0    0
    0    0   -5   12   23
    1
    0    0    0
    0    0   -5   12   24
    1
    0    0    0
    0    0   -5   12   25
    1
    0    0    0
    0    0   -5   12   26
    1
    0    0    0
    0    0   -5   12   27
    1
    0    0    0
    0    0   -5   12   28
    1
    0    0    0
    0    0   -5   12   29
    1
    0    0    0
    0    0   -5   12   30
    1
    0    0    0
    0    0   -5   12   31
    1
    0    0   10
    0    0   -5   12   32
    1
    0    0    0
    0    0   -5   12   33
    1
    0    0   10
    0    0   -5   12   34
    1
    0    0    0
    0    0   -5   12   35
    1
    0    0   10
    0    0   -5   12   36
    1
    0    0    0
    0    0   -5   12   37
    1
    0    0   10
    0    0   -5   12   38
    1
    0    0    0
    0    0   -5   12   39
    1
    0    0   10
    0    0   -5   12   40
    1
    0    0    0
    0    0   -5   12   41
    1
    0    0   10
    0    0   -5   12   42
    1
    0    0    0
    0    0   -5   12   43
    1
    0    0   10
    0    0   -5   12   44
    1
    0    0    0
    0    0   -5   12   45
    1
    0    0   10
    0    0   -5   12   46
    1
    0    0    0
    0    0   -5   12   47
    1
    0    0   10
    0    0   -5   12   48
    1
    0    0    0
    0    0   -5   12   49
    1
    0    0   10
    0    0   -5   12   50
    1
    0    0    0
    0    0   -5   13    1
    1
    0    0    0
    0    0   -5   13    2
    1
    0    0    0
    0    0   -5   13    3
    1
    0    0    0
    0    0   -5   13    4
    1
    0    0    0
    0    0   -5   13    5
    1
    0    0    0
    0    0   -5   13    6
    1
    0    0   10
    0    0   -5   13    7
    1
    0    0   10
    0    0   -5   13    8
    1
    0    0   10
    0    0   -5   13    9
    1
    0    0   10
    0    0   -5   13   10
    1
    0    0   10
    0    0   -5   13   11
    1
    0    0    0
    0    0   -5   13   12
    1
    0    0    0
    0    0   -5   13   13
    2
    0    0    0
    0    0   10
    0    0   -5   13   14
    1
    0    0    0
    0    0   -5   13   15
    1
    0    0    0
    0    0   -5   13   16
    1
    0    0    0
    0    0   -5   13   17
    1
    0    0    0
    0    0   -5   13   18
    1
    0    0    0
    0    0   -5   13   19
    1
    0    0    0
    0    0   -5   13   20
    1
    0    0    0
    0    0   -5   13   21
    1
    0    0    0
    0    0   -5   13   22
    1
    0    0    0
    0    0   -5   13   23
    1
    0    0    0
    0    0   -5   13   24
    1
    0    0    0
    0    0   -5   13   25
    1
    0    0    0
    0    0   -5   13   26
    1
    0    0    0
    0    0   -5   13   27
    1
    0    0    0
    0    0   -5   13   28
    1
    0    0    0
    0    0   -5   13   29
    1
    0    0    0
    0    0   -5   13   30
    1
    0    0    0
    0    0   -5   13   31
    1
    0    0   10
    0    0   -5   13   32
    1
    0    0    0
    0    0   -5   13   33
    1
    0    0   10
    0    0   -5   13   34
    1
    0    0    0
    0    0   -5   13   35
    1
    0    0   10
    0    0   -5   13   36
    1
    0    0    0
    0    0   -5   13   37
    1
    0    0   10
    0    0   -5   13   38
    1
    0    0    0
    0    0   -5   13   39
    1
    0    0   10
    0    0   -5   13   40
    1
    0    0    0
    0    0   -5   13   41
    1
    0    0   10
    0    0   -5   13   42
    1
    0    0    0
    0    0   -5   13   43
    1
    0    0   10
    0    0   -5   13   44
    1
    0    0    0
    0    0   -5   13   45
    1
    0    0   10
    0    0   -5   13   46
    1
    0    0    0
    0    0   -5   13   47
    1
    0    0   10
    0    0   -5   13   48
    1
    0    0    0
    0    0   -5   13   49
    1
    0    0   10
    0    0   -5   13   50
    1
    0    0    0
    0    0   -5   14    1
    1
    0    0    0
    0    0   -5   14    2
    1
    0    0    0
    0    0   -5   14    3
    1
    0    0    0
    0    0   -5   14    4
    1
    0    0    0
    0    0   -5   14    5
    1
    0    0    0
    0    0   -5   14    6
    1
    0    0   10
    0    0   -5   14    7
    1
    0    0   10
    0    0   -5   14    8
    1
    0    0   10
    0    0   -5   14    9
    1
    0    0   10
    0    0   -5   14   10
    1
    0    0   10
    0    0   -5   14   11
    1
    0    0   10
    0    0   -5   14   12
    1
    0    0   10
    0    0   -5   14   13
    1
    0    0   10
    0    0   -5   14   14
    2
    0    0    0
    0    0   10
    0    0   -5   14   15
    1
    0    0   10
    0    0   -5   14   16
    1
    0    0   10
    0    0   -5   14   17
    1
    0    0   10
    0    0   -5   14   18
    1
    0    0   10
    0    0   -5   14   19
    1
    0    0   10
    0    0   -5   14   20
    1
    0    0   10
    0    0   -5   14   21
    1
    0    0    0
    0    0   -5   14   22
    1
    0    0    0
    0    0   -5   14   23
    1
    0    0    0
    0    0   -5   14   24
    1
    0    0    0
    0    0   -5   14   25
    1
    0    0    0
    0    0   -5   14   26
    1
    0    0    0
    0    0   -5   14   27
    1
    0    0    0
    0    0   -5   14   28
    1
    0    0    0
    0    0   -5   14   29
    1
    0    0    0
    0    0   -5   14   30
    1
    0    0    0
    0    0   -5   14   31
    1
    0    0   10
    0    0   -5   14   32
    1
    0    0    0
    0    0   -5   14   33
    1
    0    0   10
    0    0   -5   14   34
    1
    0    0    0
    0    0   -5   14   35
    1
    0    0   10
    0    0   -5   14   36
    1
    0    0    0
    0    0   -5   14   37
    1
    0    0   10
    0    0   -5   14   38
    1
    0    0    0
    0    0   -5   14   39
    1
    0    0   10
    0    0   -5   14   40
    1
    0    0    0
    0    0   -5   14   41
    1
    0    0   10
    0    0   -5   14   42
    1
    0    0    0
    0    0   -5   14   43
    1
    0    0   10
    0    0   -5   14   44
    1
    0    0    0
    0    0   -5   14   45
    1
    0    0   10
    0    0   -5   14   46
    1
    0    0    0
    0    0   -5   14   47
    1
    0    0   10
    0    0   -5   14   48
    1
    0    0    0
    0    0   -5   14   49
    1
    0    0   10
    0    0   -5   14   50
    1
    0    0    0
    0    0   -5   15    1
    1
    0    0    0
    0    0   -5   15    2
    1
    0    0    0
    0    0   -5   15    3
    1
    0    0    0
    0    0   -5   15    4
    1
    0    0    0
    0    0   -5   15    5
    1
    0    0    0
    0    0   -5   15    6
    1
    0    0   10
    0    0   -5   15    7
    1
    0    0   10
    0    0   -5   15    8
    1
    0    0   10
    0    0   -5   15    9
    1
    0    0   10
    0    0   -5   15   10
    1
    0    0   10
    0    0   -5   15   11
    1
    0    0    0
    0    0   -5   15   12
    1
    0    0    0
    0    0   -5   15   13
    1
    0    0   10
    0    0   -5   15   14
    1
    0    0    0
    0    0   -5   15   15
    2
    0    0    0
    0    0   10
    0    0   -5   15   16
    1
    0    0    0
    0    0   -5   15   17
    1
    0    0    0
    0    0   -5   15   18
    1
    0    0    0
    0    0   -5   15   19
    1
    0    0    0
    0    0   -5   15   20
    1
    0    0    0
    0    0   -5   15   21
    1
    0    0    0
    0    0   -5   15   22
    1
    0    0    0
    0    0   -5   15   23
    1
    0    0    0
    0    0   -5   15   24
    1
    0    0    0
    0    0   -5   15   25
    1
    0    0    0
    0    0   -5   15   26
    1
    0    0    0
    0    0   -5   15   27
    1
    0    0    0
    0    0   -5   15   28
    1
    0    0    0
    0    0   -5   15   29
    1
    0    0    0
    0    0   -5   15   30
    1
    0    0    0
    0    0   -5   15   31
    1
    0    0   10
    0    0   -5   15   32
    1
    0    0    0
    0    0   -5   15   33
    1
    0    0   10
    0    0   -5   15   34
    1
    0    0    0
    0    0   -5   15   35
    1
    0    0   10
    0    0   -5   15   36
    1
    0    0    0
    0    0   -5   15   37
    1
    0    0   10
    0    0   -5   15   38
    1
    0    0    0
    0    0   -5   15   39
    1
    0    0   10
    0    0   -5   15   40
    1
    0    0    0
    0    0   -5   15   41
    1
    0    0   10
    0    0   -5   15   42
    1
    0    0    0
    0    0   -5   15   43
    1
    0    0   10
    0    0   -5   15   44
    1
    0    0    0
    0    0   -5   15   45
    1
    0    0   10
    0    0   -5   15   46
    1
    0    0    0
    0    0   -5   15   47
    1
    0    0   10
    0    0   -5   15   48
    1
    0    0    0
    0    0   -5   15   49
    1
    0    0   10
    0    0   -5   15   50
    1
    0    0    0
    0    0   -5   16    1
    1
    0    0    0
    0    0   -5   16    2
    1
    0    0    0
    0    0   -5   16    3
    1
    0    0    0
    0    0   -5   16    4
    1
    0    0    0
    0    0   -5   16    5
    1
    0    0    0
    0    0   -5   16    6
    1
    0    0   10
    0    0   -5   16    7
    1
    0    0   10
    0    0   -5   16    8
    1
    0    0   10
    0    0   -5   16    9
    1
    0    0   10
    0    0   -5   16   10
    1
    0    0   10
    0    0   -5   16   11
    1
    0    0    0
    0    0   -5   16   12
    1
    0    0   10
    0    0   -5   16   13
    1
    0    0   10
    0    0   -5   16   14
    1
    0    0    0
    0    0   -5   16   15
    1
    0    0   10
    0    0   -5   16   16
    2
    0    0    0
    0    0   10
    0    0   -5   16   17
    2
    0    0    0
    0    0   10
    0    0   -5   16   18
    1
    0    0   10
    0    0   -5   16   19
    1
    0    0    0
    0    0   -5   16   20
    1
    0    0    0
    0    0   -5   16   21
    1
    0    0    0
    0    0   -5   16   22
    1
    0    0    0
    0    0   -5   16   23
    1
    0    0    0
    0    0   -5   16   24
    1
    0    0    0
    0    0   -5   16   25
    1
    0    0    0
    0    0   -5   16   26
    1
    0    0    0
    0    0   -5   16   27
    1
    0    0    0
    0    0   -5   16   28
    1
    0    0    0
    0    0   -5   16   29
    1
    0    0    0
    0    0   -5   16   30
    1
    0    0    0
    0    0   -5   16   31
    1
    0    0   10
    0    0   -5   16   32
    1
    0    0    0
    0    0   -5   16   33
    1
    0    0   10
    0    0   -5   16   34
    1
    0    0    0
    0    0   -5   16   35
    1
    0    0   10
    0    0   -5   16   36
    1
    0    0    0
    0    0   -5   16   37
    1
    0    0   10
    0    0   -5   16   38
    1
    0    0    0
    0    0   -5   16   39
    1
    0    0   10
    0    0   -5   16   40
    1
    0    0    0
    0    0   -5   16   41
    1
    0    0   10
    0    0   -5   16   42
    1
    0    0    0
    0    0   -5   16   43
    1
    0    0   10
    0    0   -5   16   44
    1
    0    0    0
    0    0   -5   16   45
    1
    0    0   10
    0    0   -5   16   46
    1
    0    0    0
    0    0   -5   16   47
    1
    0    0   10
    0    0   -5   16   48
    1
    0    0    0
    0    0   -5   16   49
    1
    0    0   10
    0    0   -5   16   50
    1
    0    0    0
    0    0   -5   17    1
    1
    0    0    0
    0    0   -5   17    2
    1
    0    0    0
    0    0   -5   17    3
    1
    0    0    0
    0    0   -5   17    4
    1
    0    0    0
    0    0   -5   17    5
    1
    0    0    0
    0    0   -5   17    6
    1
    0    0   10
    0    0   -5   17    7
    1
    0    0   10
    0    0   -5   17    8
    1
    0    0   10
    0    0   -5   17    9
    1
    0    0   10
    0    0   -5   17   10
    1
    0    0   10
    0    0   -5   17   11
    1
    0    0    0
    0    0   -5   17   12
    1
    0    0   10
    0    0   -5   17   13
    1
    0    0   10
    0    0   -5   17   14
    1
    0    0    0
    0    0   -5   17   15
    1
    0    0   10
    0    0   -5   17   16
    2
    0    0    0
    0    0   10
    0    0   -5   17   17
    2
    0    0    0
    0    0   10
    0    0   -5   17   18
    1
    0    0   10
    0    0   -5   17   19
    1
    0    0    0
    0    0   -5   17   20
    1
    0    0    0
    0    0   -5   17   21
    1
    0    0    0
    0    0   -5   17   22
    1
    0    0    0
    0    0   -5   17   23
    1
    0    0    0
    0    0   -5   17   24
    1
    0    0    0
    0    0   -5   17   25
    1
    0    0    0
    0    0   -5   17   26
    1
    0    0    0
    0    0   -5   17   27
    1
    0    0    0
    0    0   -5   17   28
    1
    0    0    0
    0    0   -5   17   29
    1
    0    0    0
    0    0   -5   17   30
    1
    0    0    0
    0    0   -5   17   31
    1
    0    0   10
    0    0   -5   17   32
    1
    0    0    0
    0    0   -5   17   33
    1
    0    0   10
    0    0   -5   17   34
    1
    0    0    0
    0    0   -5   17   35
    1
    0    0   10
    0    0   -5   17   36
    1
    0    0    0
    0    0   -5   17   37
    1
    0    0   10
    0    0   -5   17   38
    1
    0    0    0
    0    0   -5   17   39
    1
    0    0   10
    0    0   -5   17   40
    1
    0    0    0
    0    0   -5   17   41
    1
    0    0   10
    0    0   -5   17   42
    1
    0    0    0
    0    0   -5   17   43
    1
    0    0   10
    0    0   -5   17   44
    1
    0    0    0
    0    0   -5   17   45
    1
    0    0   10
    0    0   -5   17   46
    1
    0    0    0
    0    0   -5   17   47
    1
    0    0   10
    0    0   -5   17   48
    1
    0    0    0
    0    0   -5   17   49
    1
    0    0   10
    0    0   -5   17   50
    1
    0    0    0
    0    0   -5   18    1
    1
    0    0    0
    0    0   -5   18    2
    1
    0    0    0
    0    0   -5   18    3
    1
    0    0    0
    0    0   -5   18    4
    1
    0    0    0
    0    0   -5   18    5
    1
    0    0    0
    0    0   -5   18    6
    1
    0    0   10
    0    0   -5   18    7
    1
    0    0   10
    0    0   -5   18    8
    1
    0    0   10
    0    0   -5   18    9
    1
    0    0   10
    0    0   -5   18   10
    1
    0    0   10
    0    0   -5   18   11
    1
    0    0    0
    0    0   -5   18   12
    1
    0    0   10
    0    0   -5   18   13
    1
    0    0   10
    0    0   -5   18   14
    1
    0    0    0
    0    0   -5   18   15
    1
    0    0   10
    0    0   -5   18   16
    1
    0    0    0
    0    0   -5   18   17
    1
    0    0    0
    0    0   -5   18   18
    2
    0    0    0
    0    0   10
    0    0   -5   18   19
    1
    0    0    0
    0    0   -5   18   20
    1
    0    0    0
    0    0   -5   18   21
    1
    0    0    0
    0    0   -5   18   22
    1
    0    0    0
    0    0   -5   18   23
    1
    0    0    0
    0    0   -5   18   24
    1
    0    0    0
    0    0   -5   18   25
    1
    0    0    0
    0    0   -5   18   26
    1
    0    0    0
    0    0   -5   18   27
    1
    0    0    0
    0    0   -5   18   28
    1
    0    0    0
    0    0   -5   18   29
    1
    0    0    0
    0    0   -5   18   30
    1
    0    0    0
    0    0   -5   18   31
    1
    0    0   10
    0    0   -5   18   32
    1
    0    0    0
    0    0   -5   18   33
    1
    0    0   10
    0    0   -5   18   34
    1
    0    0    0
    0    0   -5   18   35
    1
    0    0   10
    0    0   -5   18   36
    1
    0    0    0
    0    0   -5   18   37
    1
    0    0   10
    0    0   -5   18   38
    1
    0    0    0
    0    0   -5   18   39
    1
    0    0   10
    0    0   -5   18   40
    1
    0    0    0
    0    0   -5   18   41
    1
    0    0   10
    0    0   -5   18   42
    1
    0    0    0
    0    0   -5   18   43
    1
    0    0   10
    0    0   -5   18   44
    1
    0    0    0
    0    0   -5   18   45
    1
    0    0   10
    0    0   -5   18   46
    1
    0    0    0
    0    0   -5   18   47
    1
    0    0   10
    0    0   -5   18   48
    1
    0    0    0
    0    0   -5   18   49
    1
    0    0   10
    0    0   -5   18   50
    1
    0    0    0
    0    0   -5   19    1
    1
    0    0    0
    0    0   -5   19    2
    1
    0    0    0
    0    0   -5   19    3
    1
    0    0    0
    0    0   -5   19    4
    1
    0    0    0
    0    0   -5   19    5
    1
    0    0    0
    0    0   -5   19    6
    1
    0    0   10
    0    0   -5   19    7
    1
    0    0   10
    0    0   -5   19    8
    1
    0    0   10
    0    0   -5   19    9
    1
    0    0   10
    0    0   -5   19   10
    1
    0    0   10
    0    0   -5   19   11
    1
    0    0    0
    0    0   -5   19   12
    1
    0    0   10
    0    0   -5   19   13
    1
    0    0   10
    0    0   -5   19   14
    1
    0    0    0
    0    0   -5   19   15
    1
    0    0   10
    0    0   -5   19   16
    1
    0    0   10
    0    0   -5   19   17
    1
    0    0   10
    0    0   -5   19   18
    1
    0    0   10
    0    0   -5   19   19
    2
    0    0    0
    0    0   10
    0    0   -5   19   20
    1
    0    0    0
    0    0   -5   19   21
    1
    0    0    0
    0    0   -5   19   22
    1
    0    0    0
    0    0   -5   19   23
    1
    0    0    0
    0    0   -5   19   24
    1
    0    0    0
    0    0   -5   19   25
    1
    0    0    0
    0    0   -5   19   26
    1
    0    0    0
    0    0   -5   19   27
    1
    0    0    0
    0    0   -5   19   28
    1
    0    0    0
    0    0   -5   19   29
    1
    0    0    0
    0    0   -5   19   30
    1
    0    0    0
    0    0   -5   19   31
    1
    0    0   10
    0    0   -5   19   32
    1
    0    0    0
    0    0   -5   19   33
    1
    0    0   10
    0    0   -5   19   34
    1
    0    0    0
    0    0   -5   19   35
    1
    0    0   10
    0    0   -5   19   36
    1
    0    0    0
    0    0   -5   19   37
    1
    0    0   10
    0    0   -5   19   38
    1
    0    0    0
    0    0   -5   19   39
    1
    0    0   10
    0    0   -5   19   40
    1
    0    0    0
    0    0   -5   19   41
    1
    0    0   10
    0    0   -5   19   42
    1
    0    0    0
    0    0   -5   19   43
    1
    0    0   10
    0    0   -5   19   44
    1
    0    0    0
    0    0   -5   19   45
    1
    0    0   10
    0    0   -5   19   46
    1
    0    0    0
    0    0   -5   19   47
    1
    0    0   10
    0    0   -5   19   48
    1
    0    0    0
    0    0   -5   19   49
    1
    0    0   10
    0    0   -5   19   50
    1
    0    0    0
    0    0   -5   20    1
    1
    0    0    0
    0    0   -5   20    2
    1
    0    0    0
    0    0   -5   20    3
    1
    0    0    0
    0    0   -5   20    4
    1
    0    0    0
    0    0   -5   20    5
    1
    0    0    0
    0    0   -5   20    6
    1
    0    0   10
    0    0   -5   20    7
    1
    0    0   10
    0    0   -5   20    8
    1
    0    0   10
    0    0   -5   20    9
    1
    0    0   10
    0    0   -5   20   10
    1
    0    0   10
    0    0   -5   20   11
    1
    0    0   10
    0    0   -5   20   12
    1
    0    0   10
    0    0   -5   20   13
    1
    0    0   10
    0    0   -5   20   14
    1
    0    0    0
    0    0   -5   20   15
    1
    0    0   10
    0    0   -5   20   16
    1
    0    0   10
    0    0   -5   20   17
    1
    0    0   10
    0    0   -5   20   18
    1
    0    0   10
    0    0   -5   20   19
    1
    0    0   10
    0    0   -5   20   20
    2
    0    0    0
    0    0   10
    0    0   -5   20   21
    1
    0    0    0
    0    0   -5   20   22
    1
    0    0    0
    0    0   -5   20   23
    1
    0    0    0
    0    0   -5   20   24
    1
    0    0    0
    0    0   -5   20   25
    1
    0    0    0
    0    0   -5   20   26
    1
    0    0    0
    0    0   -5   20   27
    1
    0    0    0
    0    0   -5   20   28
    1
    0    0    0
    0    0   -5   20   29
    1
    0    0    0
    0    0   -5   20   30
    1
    0    0    0
    0    0   -5   20   31
    1
    0    0   10
    0    0   -5   20   32
    1
    0    0    0
    0    0   -5   20   33
    1
    0    0   10
    0    0   -5   20   34
    1
    0    0    0
    0    0   -5   20   35
    1
    0    0   10
    0    0   -5   20   36
    1
    0    0    0
    0    0   -5   20   37
    1
    0    0   10
    0    0   -5   20   38
    1
    0    0    0
    0    0   -5   20   39
    1
    0    0   10
    0    0   -5   20   40
    1
    0    0    0
    0    0   -5   20   41
    1
    0    0   10
    0    0   -5   20   42
    1
    0    0    0
    0    0   -5   20   43
    1
    0    0   10
    0    0   -5   20   44
    1
    0    0    0
    0    0   -5   20   45
    1
    0    0   10
    0    0   -5   20   46
    1
    0    0    0
    0    0   -5   20   47
    1
    0    0   10
    0    0   -5   20   48
    1
    0    0    0
    0    0   -5   20   49
    1
    0    0   10
    0    0   -5   20   50
    1
    0    0    0
    0    0   -5   21    1
    1
    0    0   10
    0    0   -5   21    2
    1
    0    0   10
    0    0   -5   21    3
    1
    0    0   10
    0    0   -5   21    4
    1
    0    0   10
    0    0   -5   21    5
    1
    0    0   10
    0    0   -5   21    6
    1
    0    0   10
    0    0   -5   21    7
    1
    0    0   10
    0    0   -5   21    8
    1
    0    0   10
    0    0   -5   21    9
    1
    0    0   10
    0    0   -5   21   10
    1
    0    0   10
    0    0   -5   21   11
    1
    0    0   10
    0    0   -5   21   12
    1
    0    0   10
    0    0   -5   21   13
    1
    0    0   10
    0    0   -5   21   14
    1
    0    0   10
    0    0   -5   21   15
    1
    0    0   10
    0    0   -5   21   16
    1
    0    0   10
    0    0   -5   21   17
    1
    0    0   10
    0    0   -5   21   18
    1
    0    0   10
    0    0   -5   21   19
    1
    0    0   10
    0    0   -5   21   20
    1
    0    0   10
    0    0   -5   21   21
    2
    0    0    0
    0    0   10
    0    0   -5   21   22
    1
    0    0    0
    0    0   -5   21   23
    1
    0    0    0
    0    0   -5   21   24
    1
    0    0   10
    0    0   -5   21   25
    1
    0    0    0
    0    0   -5   21   26
    1
    0    0    0
    0    0   -5   21   27
    1
    0    0    0
    0    0   -5   21   28
    1
    0    0    0
    0    0   -5   21   29
    1
    0    0    0
    0    0   -5   21   30
    1
    0    0   10
    0    0   -5   21   31
    1
    0    0   10
    0    0   -5   21   32
    1
    0    0   10
    0    0   -5   21   33
    1
    0    0   10
    0    0   -5   21   34
    1
    0    0   10
    0    0   -5   21   35
    1
    0    0   10
    0    0   -5   21   36
    1
    0    0   10
    0    0   -5   21   37
    1
    0    0   10
    0    0   -5   21   38
    1
    0    0   10
    0    0   -5   21   39
    1
    0    0   10
    0    0   -5   21   40
    1
    0    0   10
    0    0   -5   21   41
    1
    0    0   10
    0    0   -5   21   42
    1
    0    0   10
    0    0   -5   21   43
    1
    0    0   10
    0    0   -5   21   44
    1
    0    0   10
    0    0   -5   21   45
    1
    0    0   10
    0    0   -5   21   46
    1
    0    0   10
    0    0   -5   21   47
    1
    0    0   10
    0    0   -5   21   48
    1
    0    0   10
    0    0   -5   21   49
    1
    0    0   10
    0    0   -5   21   50
    1
    0    0   10
    0    0   -5   22    1
    1
    0    0   10
    0    0   -5   22    2
    1
    0    0   10
    0    0   -5   22    3
    1
    0    0   10
    0    0   -5   22    4
    1
    0    0   10
    0    0   -5   22    5
    1
    0    0   10
    0    0   -5   22    6
    1
    0    0   10
    0    0   -5   22    7
    1
    0    0   10
    0    0   -5   22    8
    1
    0    0   10
    0    0   -5   22    9
    1
    0    0   10
    0    0   -5   22   10
    1
    0    0   10
    0    0   -5   22   11
    1
    0    0   10
    0    0   -5   22   12
    1
    0    0   10
    0    0   -5   22   13
    1
    0    0   10
    0    0   -5   22   14
    1
    0    0   10
    0    0   -5   22   15
    1
    0    0   10
    0    0   -5   22   16
    1
    0    0   10
    0    0   -5   22   17
    1
    0    0   10
    0    0   -5   22   18
    1
    0    0   10
    0    0   -5   22   19
    1
    0    0   10
    0    0   -5   22   20
    1
    0    0   10
    0    0   -5   22   21
    1
    0    0   10
    0    0   -5   22   22
    2
    0    0    0
    0    0   10
    0    0   -5   22   23
    1
    0    0    0
    0    0   -5   22   24
    1
    0    0   10
    0    0   -5   22   25
    1
    0    0    0
    0    0   -5   22   26
    1
    0    0   10
    0    0   -5   22   27
    1
    0    0   10
    0    0   -5   22   28
    1
    0    0   10
    0    0   -5   22   29
    1
    0    0   10
    0    0   -5   22   30
    1
    0    0   10
    0    0   -5   22   31
    1
    0    0   10
    0    0   -5   22   32
    1
    0    0   10
    0    0   -5   22   33
    1
    0    0   10
    0    0   -5   22   34
    1
    0    0   10
    0    0   -5   22   35
    1
    0    0   10
    0    0   -5   22   36
    1
    0    0   10
    0    0   -5   22   37
    1
    0    0   10
    0    0   -5   22   38
    1
    0    0   10
    0    0   -5   22   39
    1
    0    0   10
    0    0   -5   22   40
    1
    0    0   10
    0    0   -5   22   41
    1
    0    0   10
    0    0   -5   22   42
    1
    0    0   10
    0    0   -5   22   43
    1
    0    0   10
    0    0   -5   22   44
    1
    0    0   10
    0    0   -5   22   45
    1
    0    0   10
    0    0   -5   22   46
    1
    0    0   10
    0    0   -5   22   47
    1
    0    0   10
    0    0   -5   22   48
    1
    0    0   10
    0    0   -5   22   49
    1
    0    0   10
    0    0   -5   22   50
    1
    0    0   10
    0    0   -5   23    1
    1
    0    0   10
    0    0   -5   23    2
    1
    0    0   10
    0    0   -5   23    3
    1
    0    0   10
    0    0   -5   23    4
    1
    0    0   10
    0    0   -5   23    5
    1
    0    0   10
    0    0   -5   23    6
    1
    0    0   10
    0    0   -5   23    7
    1
    0    0   10
    0    0   -5   23    8
    1
    0    0   10
    0    0   -5   23    9
    1
    0    0   10
    0    0   -5   23   10
    1
    0    0   10
    0    0   -5   23   11
    1
    0    0   10
    0    0   -5   23   12
    1
    0    0   10
    0    0   -5   23   13
    1
    0    0   10
    0    0   -5   23   14
    1
    0    0   10
    0    0   -5   23   15
    1
    0    0   10
    0    0   -5   23   16
    1
    0    0   10
    0    0   -5   23   17
    1
    0    0   10
    0    0   -5   23   18
    1
    0    0   10
    0    0   -5   23   19
    1
    0    0   10
    0    0   -5   23   20
    1
    0    0   10
    0    0   -5   23   21
    1
    0    0   10
    0    0   -5   23   22
    1
    0    0   10
    0    0   -5   23   23
    2
    0    0    0
    0    0   10
    0    0   -5   23   24
    1
    0    0   10
    0    0   -5   23   25
    1
    0    0   10
    0    0   -5   23   26
    1
    0    0   10
    0    0   -5   23   27
    1
    0    0   10
    0    0   -5   23   28
    1
    0    0   10
    0    0   -5   23   29
    1
    0    0   10
    0    0   -5   23   30
    1
    0    0   10
    0    0   -5   23   31
    1
    0    0   10
    0    0   -5   23   32
    1
    0    0   10
    0    0   -5   23   33
    1
    0    0   10
    0    0   -5   23   34
    1
    0    0   10
    0    0   -5   23   35
    1
    0    0   10
    0    0   -5   23   36
    1
    0    0   10
    0    0   -5   23   37
    1
    0    0   10
    0    0   -5   23   38
    1
    0    0   10
    0    0   -5   23   39
    1
    0    0   10
    0    0   -5   23   40
    1
    0    0   10
    0    0   -5   23   41
    1
    0    0   10
    0    0   -5   23   42
    1
    0    0   10
    0    0   -5   23   43
    1
    0    0   10
    0    0   -5   23   44
    1
    0    0   10
    0    0   -5   23   45
    1
    0    0   10
    0    0   -5   23   46
    1
    0    0   10
    0    0   -5   23   47
    1
    0    0   10
    0    0   -5   23   48
    1
    0    0   10
    0    0   -5   23   49
    1
    0    0   10
    0    0   -5   23   50
    1
    0    0   10
    0    0   -5   24    1
    1
    0    0   10
    0    0   -5   24    2
    1
    0    0   10
    0    0   -5   24    3
    1
    0    0   10
    0    0   -5   24    4
    1
    0    0   10
    0    0   -5   24    5
    1
    0    0   10
    0    0   -5   24    6
    1
    0    0   10
    0    0   -5   24    7
    1
    0    0   10
    0    0   -5   24    8
    1
    0    0   10
    0    0   -5   24    9
    1
    0    0   10
    0    0   -5   24   10
    1
    0    0   10
    0    0   -5   24   11
    1
    0    0   10
    0    0   -5   24   12
    1
    0    0   10
    0    0   -5   24   13
    1
    0    0   10
    0    0   -5   24   14
    1
    0    0   10
    0    0   -5   24   15
    1
    0    0   10
    0    0   -5   24   16
    1
    0    0   10
    0    0   -5   24   17
    1
    0    0   10
    0    0   -5   24   18
    1
    0    0   10
    0    0   -5   24   19
    1
    0    0   10
    0    0   -5   24   20
    1
    0    0   10
    0    0   -5   24   21
    1
    0    0    0
    0    0   -5   24   22
    1
    0    0    0
    0    0   -5   24   23
    1
    0    0    0
    0    0   -5   24   24
    2
    0    0    0
    0    0   10
    0    0   -5   24   25
    1
    0    0    0
    0    0   -5   24   26
    1
    0    0    0
    0    0   -5   24   27
    1
    0    0    0
    0    0   -5   24   28
    1
    0    0    0
    0    0   -5   24   29
    1
    0    0    0
    0    0   -5   24   30
    1
    0    0    0
    0    0   -5   24   31
    1
    0    0   10
    0    0   -5   24   32
    1
    0    0   10
    0    0   -5   24   33
    1
    0    0   10
    0    0   -5   24   34
    1
    0    0   10
    0    0   -5   24   35
    1
    0    0   10
    0    0   -5   24   36
    1
    0    0   10
    0    0   -5   24   37
    1
    0    0   10
    0    0   -5   24   38
    1
    0    0   10
    0    0   -5   24   39
    1
    0    0   10
    0    0   -5   24   40
    1
    0    0   10
    0    0   -5   24   41
    1
    0    0   10
    0    0   -5   24   42
    1
    0    0   10
    0    0   -5   24   43
    1
    0    0   10
    0    0   -5   24   44
    1
    0    0   10
    0    0   -5   24   45
    1
    0    0   10
    0    0   -5   24   46
    1
    0    0   10
    0    0   -5   24   47
    1
    0    0   10
    0    0   -5   24   48
    1
    0    0   10
    0    0   -5   24   49
    1
    0    0   10
    0    0   -5   24   50
    1
    0    0   10
    0    0   -5   25    1
    1
    0    0   10
    0    0   -5   25    2
    1
    0    0   10
    0    0   -5   25    3
    1
    0    0   10
    0    0   -5   25    4
    1
    0    0   10
    0    0   -5   25    5
    1
    0    0   10
    0    0   -5   25    6
    1
    0    0   10
    0    0   -5   25    7
    1
    0    0   10
    0    0   -5   25    8
    1
    0    0   10
    0    0   -5   25    9
    1
    0    0   10
    0    0   -5   25   10
    1
    0    0   10
    0    0   -5   25   11
    1
    0    0   10
    0    0   -5   25   12
    1
    0    0   10
    0    0   -5   25   13
    1
    0    0   10
    0    0   -5   25   14
    1
    0    0   10
    0    0   -5   25   15
    1
    0    0   10
    0    0   -5   25   16
    1
    0    0   10
    0    0   -5   25   17
    1
    0    0   10
    0    0   -5   25   18
    1
    0    0   10
    0    0   -5   25   19
    1
    0    0   10
    0    0   -5   25   20
    1
    0    0   10
    0    0   -5   25   21
    1
    0    0   10
    0    0   -5   25   22
    1
    0    0   10
    0    0   -5   25   23
    1
    0    0    0
    0    0   -5   25   24
    1
    0    0   10
    0    0   -5   25   25
    2
    0    0    0
    0    0   10
    0    0   -5   25   26
    1
    0    0   10
    0    0   -5   25   27
    1
    0    0   10
    0    0   -5   25   28
    1
    0    0   10
    0    0   -5   25   29
    1
    0    0   10
    0    0   -5   25   30
    1
    0    0   10
    0    0   -5   25   31
    1
    0    0   10
    0    0   -5   25   32
    1
    0    0   10
    0    0   -5   25   33
    1
    0    0   10
    0    0   -5   25   34
    1
    0    0   10
    0    0   -5   25   35
    1
    0    0   10
    0    0   -5   25   36
    1
    0    0   10
    0    0   -5   25   37
    1
    0    0   10
    0    0   -5   25   38
    1
    0    0   10
    0    0   -5   25   39
    1
    0    0   10
    0    0   -5   25   40
    1
    0    0   10
    0    0   -5   25   41
    1
    0    0   10
    0    0   -5   25   42
    1
    0    0   10
    0    0   -5   25   43
    1
    0    0   10
    0    0   -5   25   44
    1
    0    0   10
    0    0   -5   25   45
    1
    0    0   10
    0    0   -5   25   46
    1
    0    0   10
    0    0   -5   25   47
    1
    0    0   10
    0    0   -5   25   48
    1
    0    0   10
    0    0   -5   25   49
    1
    0    0   10
    0    0   -5   25   50
    1
    0    0   10
    0    0   -5   26    1
    1
    0    0   10
    0    0   -5   26    2
    1
    0    0   10
    0    0   -5   26    3
    1
    0    0   10
    0    0   -5   26    4
    1
    0    0   10
    0    0   -5   26    5
    1
    0    0   10
    0    0   -5   26    6
    1
    0    0   10
    0    0   -5   26    7
    1
    0    0   10
    0    0   -5   26    8
    1
    0    0   10
    0    0   -5   26    9
    1
    0    0   10
    0    0   -5   26   10
    1
    0    0   10
    0    0   -5   26   11
    1
    0    0   10
    0    0   -5   26   12
    1
    0    0   10
    0    0   -5   26   13
    1
    0    0   10
    0    0   -5   26   14
    1
    0    0   10
    0    0   -5   26   15
    1
    0    0   10
    0    0   -5   26   16
    1
    0    0   10
    0    0   -5   26   17
    1
    0    0   10
    0    0   -5   26   18
    1
    0    0   10
    0    0   -5   26   19
    1
    0    0   10
    0    0   -5   26   20
    1
    0    0   10
    0    0   -5   26   21
    1
    0    0   10
    0    0   -5   26   22
    1
    0    0    0
    0    0   -5   26   23
    1
    0    0    0
    0    0   -5   26   24
    1
    0    0   10
    0    0   -5   26   25
    1
    0    0    0
    0    0   -5   26   26
    2
    0    0    0
    0    0   10
    0    0   -5   26   27
    2
    0    0    0
    0    0   10
    0    0   -5   26   28
    1
    0    0    0
    0    0   -5   26   29
    1
    0    0   10
    0    0   -5   26   30
    1
    0    0   10
    0    0   -5   26   31
    1
    0    0   10
    0    0   -5   26   32
    1
    0    0   10
    0    0   -5   26   33
    1
    0    0   10
    0    0   -5   26   34
    1
    0    0   10
    0    0   -5   26   35
    1
    0    0   10
    0    0   -5   26   36
    1
    0    0   10
    0    0   -5   26   37
    1
    0    0   10
    0    0   -5   26   38
    1
    0    0   10
    0    0   -5   26   39
    1
    0    0   10
    0    0   -5   26   40
    1
    0    0   10
    0    0   -5   26   41
    1
    0    0   10
    0    0   -5   26   42
    1
    0    0   10
    0    0   -5   26   43
    1
    0    0   10
    0    0   -5   26   44
    1
    0    0   10
    0    0   -5   26   45
    1
    0    0   10
    0    0   -5   26   46
    1
    0    0   10
    0    0   -5   26   47
    1
    0    0   10
    0    0   -5   26   48
    1
    0    0   10
    0    0   -5   26   49
    1
    0    0   10
    0    0   -5   26   50
    1
    0    0   10
    0    0   -5   27    1
    1
    0    0   10
    0    0   -5   27    2
    1
    0    0   10
    0    0   -5   27    3
    1
    0    0   10
    0    0   -5   27    4
    1
    0    0   10
    0    0   -5   27    5
    1
    0    0   10
    0    0   -5   27    6
    1
    0    0   10
    0    0   -5   27    7
    1
    0    0   10
    0    0   -5   27    8
    1
    0    0   10
    0    0   -5   27    9
    1
    0    0   10
    0    0   -5   27   10
    1
    0    0   10
    0    0   -5   27   11
    1
    0    0   10
    0    0   -5   27   12
    1
    0    0   10
    0    0   -5   27   13
    1
    0    0   10
    0    0   -5   27   14
    1
    0    0   10
    0    0   -5   27   15
    1
    0    0   10
    0    0   -5   27   16
    1
    0    0   10
    0    0   -5   27   17
    1
    0    0   10
    0    0   -5   27   18
    1
    0    0   10
    0    0   -5   27   19
    1
    0    0   10
    0    0   -5   27   20
    1
    0    0   10
    0    0   -5   27   21
    1
    0    0   10
    0    0   -5   27   22
    1
    0    0    0
    0    0   -5   27   23
    1
    0    0    0
    0    0   -5   27   24
    1
    0    0   10
    0    0   -5   27   25
    1
    0    0    0
    0    0   -5   27   26
    2
    0    0    0
    0    0   10
    0    0   -5   27   27
    2
    0    0    0
    0    0   10
    0    0   -5   27   28
    1
    0    0    0
    0    0   -5   27   29
    1
    0    0   10
    0    0   -5   27   30
    1
    0    0   10
    0    0   -5   27   31
    1
    0    0   10
    0    0   -5   27   32
    1
    0    0   10
    0    0   -5   27   33
    1
    0    0   10
    0    0   -5   27   34
    1
    0    0   10
    0    0   -5   27   35
    1
    0    0   10
    0    0   -5   27   36
    1
    0    0   10
    0    0   -5   27   37
    1
    0    0   10
    0    0   -5   27   38
    1
    0    0   10
    0    0   -5   27   39
    1
    0    0   10
    0    0   -5   27   40
    1
    0    0   10
    0    0   -5   27   41
    1
    0    0   10
    0    0   -5   27   42
    1
    0    0   10
    0    0   -5   27   43
    1
    0    0   10
    0    0   -5   27   44
    1
    0    0   10
    0    0   -5   27   45
    1
    0    0   10
    0    0   -5   27   46
    1
    0    0   10
    0    0   -5   27   47
    1
    0    0   10
    0    0   -5   27   48
    1
    0    0   10
    0    0   -5   27   49
    1
    0    0   10
    0    0   -5   27   50
    1
    0    0   10
    0    0   -5   28    1
    1
    0    0   10
    0    0   -5   28    2
    1
    0    0   10
    0    0   -5   28    3
    1
    0    0   10
    0    0   -5   28    4
    1
    0    0   10
    0    0   -5   28    5
    1
    0    0   10
    0    0   -5   28    6
    1
    0    0   10
    0    0   -5   28    7
    1
    0    0   10
    0    0   -5   28    8
    1
    0    0   10
    0    0   -5   28    9
    1
    0    0   10
    0    0   -5   28   10
    1
    0    0   10
    0    0   -5   28   11
    1
    0    0   10
    0    0   -5   28   12
    1
    0    0   10
    0    0   -5   28   13
    1
    0    0   10
    0    0   -5   28   14
    1
    0    0   10
    0    0   -5   28   15
    1
    0    0   10
    0    0   -5   28   16
    1
    0    0   10
    0    0   -5   28   17
    1
    0    0   10
    0    0   -5   28   18
    1
    0    0   10
    0    0   -5   28   19
    1
    0    0   10
    0    0   -5   28   20
    1
    0    0   10
    0    0   -5   28   21
    1
    0    0   10
    0    0   -5   28   22
    1
    0    0    0
    0    0   -5   28   23
    1
    0    0    0
    0    0   -5   28   24
    1
    0    0   10
    0    0   -5   28   25
    1
    0    0    0
    0    0   -5   28   26
    1
    0    0   10
    0    0   -5   28   27
    1
    0    0   10
    0    0   -5   28   28
    2
    0    0    0
    0    0   10
    0    0   -5   28   29
    1
    0    0   10
    0    0   -5   28   30
    1
    0    0   10
    0    0   -5   28   31
    1
    0    0   10
    0    0   -5   28   32
    1
    0    0   10
    0    0   -5   28   33
    1
    0    0   10
    0    0   -5   28   34
    1
    0    0   10
    0    0   -5   28   35
    1
    0    0   10
    0    0   -5   28   36
    1
    0    0   10
    0    0   -5   28   37
    1
    0    0   10
    0    0   -5   28   38
    1
    0    0   10
    0    0   -5   28   39
    1
    0    0   10
    0    0   -5   28   40
    1
    0    0   10
    0    0   -5   28   41
    1
    0    0   10
    0    0   -5   28   42
    1
    0    0   10
    0    0   -5   28   43
    1
    0    0   10
    0    0   -5   28   44
    1
    0    0   10
    0    0   -5   28   45
    1
    0    0   10
    0    0   -5   28   46
    1
    0    0   10
    0    0   -5   28   47
    1
    0    0   10
    0    0   -5   28   48
    1
    0    0   10
    0    0   -5   28   49
    1
    0    0   10
    0    0   -5   28   50
    1
    0    0   10
    0    0   -5   29    1
    1
    0    0   10
    0    0   -5   29    2
    1
    0    0   10
    0    0   -5   29    3
    1
    0    0   10
    0    0   -5   29    4
    1
    0    0   10
    0    0   -5   29    5
    1
    0    0   10
    0    0   -5   29    6
    1
    0    0   10
    0    0   -5   29    7
    1
    0    0   10
    0    0   -5   29    8
    1
    0    0   10
    0    0   -5   29    9
    1
    0    0   10
    0    0   -5   29   10
    1
    0    0   10
    0    0   -5   29   11
    1
    0    0   10
    0    0   -5   29   12
    1
    0    0   10
    0    0   -5   29   13
    1
    0    0   10
    0    0   -5   29   14
    1
    0    0   10
    0    0   -5   29   15
    1
    0    0   10
    0    0   -5   29   16
    1
    0    0   10
    0    0   -5   29   17
    1
    0    0   10
    0    0   -5   29   18
    1
    0    0   10
    0    0   -5   29   19
    1
    0    0   10
    0    0   -5   29   20
    1
    0    0   10
    0    0   -5   29   21
    1
    0    0   10
    0    0   -5   29   22
    1
    0    0    0
    0    0   -5   29   23
    1
    0    0    0
    0    0   -5   29   24
    1
    0    0   10
    0    0   -5   29   25
    1
    0    0    0
    0    0   -5   29   26
    1
    0    0    0
    0    0   -5   29   27
    1
    0    0    0
    0    0   -5   29   28
    1
    0    0    0
    0    0   -5   29   29
    2
    0    0    0
    0    0   10
    0    0   -5   29   30
    1
    0    0   10
    0    0   -5   29   31
    1
    0    0   10
    0    0   -5   29   32
    1
    0    0   10
    0    0   -5   29   33
    1
    0    0   10
    0    0   -5   29   34
    1
    0    0   10
    0    0   -5   29   35
    1
    0    0   10
    0    0   -5   29   36
    1
    0    0   10
    0    0   -5   29   37
    1
    0    0   10
    0    0   -5   29   38
    1
    0    0   10
    0    0   -5   29   39
    1
    0    0   10
    0    0   -5   29   40
    1
    0    0   10
    0    0   -5   29   41
    1
    0    0   10
    0    0   -5   29   42
    1
    0    0   10
    0    0   -5   29   43
    1
    0    0   10
    0    0   -5   29   44
    1
    0    0   10
    0    0   -5   29   45
    1
    0    0   10
    0    0   -5   29   46
    1
    0    0   10
    0    0   -5   29   47
    1
    0    0   10
    0    0   -5   29   48
    1
    0    0   10
    0    0   -5   29   49
    1
    0    0   10
    0    0   -5   29   50
    1
    0    0   10
    0    0   -5   30    1
    1
    0    0   10
    0    0   -5   30    2
    1
    0    0   10
    0    0   -5   30    3
    1
    0    0   10
    0    0   -5   30    4
    1
    0    0   10
    0    0   -5   30    5
    1
    0    0   10
    0    0   -5   30    6
    1
    0    0   10
    0    0   -5   30    7
    1
    0    0   10
    0    0   -5   30    8
    1
    0    0   10
    0    0   -5   30    9
    1
    0    0   10
    0    0   -5   30   10
    1
    0    0   10
    0    0   -5   30   11
    1
    0    0   10
    0    0   -5   30   12
    1
    0    0   10
    0    0   -5   30   13
    1
    0    0   10
    0    0   -5   30   14
    1
    0    0   10
    0    0   -5   30   15
    1
    0    0   10
    0    0   -5   30   16
    1
    0    0   10
    0    0   -5   30   17
    1
    0    0   10
    0    0   -5   30   18
    1
    0    0   10
    0    0   -5   30   19
    1
    0    0   10
    0    0   -5   30   20
    1
    0    0   10
    0    0   -5   30   21
    1
    0    0    0
    0    0   -5   30   22
    1
    0    0    0
    0    0   -5   30   23
    1
    0    0    0
    0    0   -5   30   24
    1
    0    0   10
    0    0   -5   30   25
    1
    0    0    0
    0    0   -5   30   26
    1
    0    0    0
    0    0   -5   30   27
    1
    0    0    0
    0    0   -5   30   28
    1
    0    0    0
    0    0   -5   30   29
    1
    0    0    0
    0    0   -5   30   30
    2
    0    0    0
    0    0   10
    0    0   -5   30   31
    1
    0    0   10
    0    0   -5   30   32
    1
    0    0   10
    0    0   -5   30   33
    1
    0    0   10
    0    0   -5   30   34
    1
    0    0   10
    0    0   -5   30   35
    1
    0    0   10
    0    0   -5   30   36
    1
    0    0   10
    0    0   -5   30   37
    1
    0    0   10
    0    0   -5   30   38
    1
    0    0   10
    0    0   -5   30   39
    1
    0    0   10
    0    0   -5   30   40
    1
    0    0   10
    0    0   -5   30   41
    1
    0    0   10
    0    0   -5   30   42
    1
    0    0   10
    0    0   -5   30   43
    1
    0    0   10
    0    0   -5   30   44
    1
    0    0   10
    0    0   -5   30   45
    1
    0    0   10
    0    0   -5   30   46
    1
    0    0   10
    0    0   -5   30   47
    1
    0    0   10
    0    0   -5   30   48
    1
    0    0   10
    0    0   -5   30   49
    1
    0    0   10
    0    0   -5   30   50
    1
    0    0   10
    0    0   -5   31    1
    1
    0    0    0
    0    0   -5   31    2
    1
    0    0    0
    0    0   -5   31    3
    1
    0    0    0
    0    0   -5   31    4
    1
    0    0    0
    0    0   -5   31    5
    1
    0    0    0
    0    0   -5   31    6
    1
    0    0    0
    0    0   -5   31    7
    1
    0    0    0
    0    0   -5   31    8
    1
    0    0    0
    0    0   -5   31    9
    1
    0    0    0
    0    0   -5   31   10
    1
    0    0    0
    0    0   -5   31   11
    1
    0    0    0
    0    0   -5   31   12
    1
    0    0    0
    0    0   -5   31   13
    1
    0    0    0
    0    0   -5   31   14
    1
    0    0    0
    0    0   -5   31   15
    1
    0    0    0
    0    0   -5   31   16
    1
    0    0    0
    0    0   -5   31   17
    1
    0    0    0
    0    0   -5   31   18
    1
    0    0    0
    0    0   -5   31   19
    1
    0    0    0
    0    0   -5   31   20
    1
    0    0    0
    0    0   -5   31   21
    1
    0    0    0
    0    0   -5   31   22
    1
    0    0    0
    0    0   -5   31   23
    1
    0    0    0
    0    0   -5   31   24
    1
    0    0    0
    0    0   -5   31   25
    1
    0    0    0
    0    0   -5   31   26
    1
    0    0    0
    0    0   -5   31   27
    1
    0    0    0
    0    0   -5   31   28
    1
    0    0    0
    0    0   -5   31   29
    1
    0    0    0
    0    0   -5   31   30
    1
    0    0    0
    0    0   -5   31   31
    2
    0    0    0
    0    0   10
    0    0   -5   31   32
    1
    0    0    0
    0    0   -5   31   33
    1
    0    0    0
    0    0   -5   31   34
    1
    0    0    0
    0    0   -5   31   35
    1
    0    0    0
    0    0   -5   31   36
    1
    0    0    0
    0    0   -5   31   37
    1
    0    0    0
    0    0   -5   31   38
    1
    0    0    0
    0    0   -5   31   39
    1
    0    0    0
    0    0   -5   31   40
    1
    0    0    0
    0    0   -5   31   41
    1
    0    0    0
    0    0   -5   31   42
    1
    0    0    0
    0    0   -5   31   43
    1
    0    0    0
    0    0   -5   31   44
    1
    0    0    0
    0    0   -5   31   45
    1
    0    0    0
    0    0   -5   31   46
    1
    0    0    0
    0    0   -5   31   47
    1
    0    0    0
    0    0   -5   31   48
    1
    0    0    0
    0    0   -5   31   49
    1
    0    0    0
    0    0   -5   31   50
    1
    0    0    0
    0    0   -5   32    1
    1
    0    0    0
    0    0   -5   32    2
    1
    0    0    0
    0    0   -5   32    3
    1
    0    0    0
    0    0   -5   32    4
    1
    0    0    0
    0    0   -5   32    5
    1
    0    0    0
    0    0   -5   32    6
    1
    0    0   10
    0    0   -5   32    7
    1
    0    0   10
    0    0   -5   32    8
    1
    0    0   10
    0    0   -5   32    9
    1
    0    0   10
    0    0   -5   32   10
    1
    0    0   10
    0    0   -5   32   11
    1
    0    0   10
    0    0   -5   32   12
    1
    0    0   10
    0    0   -5   32   13
    1
    0    0   10
    0    0   -5   32   14
    1
    0    0   10
    0    0   -5   32   15
    1
    0    0   10
    0    0   -5   32   16
    1
    0    0   10
    0    0   -5   32   17
    1
    0    0   10
    0    0   -5   32   18
    1
    0    0   10
    0    0   -5   32   19
    1
    0    0   10
    0    0   -5   32   20
    1
    0    0   10
    0    0   -5   32   21
    1
    0    0    0
    0    0   -5   32   22
    1
    0    0    0
    0    0   -5   32   23
    1
    0    0    0
    0    0   -5   32   24
    1
    0    0    0
    0    0   -5   32   25
    1
    0    0    0
    0    0   -5   32   26
    1
    0    0    0
    0    0   -5   32   27
    1
    0    0    0
    0    0   -5   32   28
    1
    0    0    0
    0    0   -5   32   29
    1
    0    0    0
    0    0   -5   32   30
    1
    0    0    0
    0    0   -5   32   31
    1
    0    0   10
    0    0   -5   32   32
    2
    0    0    0
    0    0   10
    0    0   -5   32   33
    1
    0    0   10
    0    0   -5   32   34
    1
    0    0   10
    0    0   -5   32   35
    1
    0    0   10
    0    0   -5   32   36
    1
    0    0   10
    0    0   -5   32   37
    1
    0    0   10
    0    0   -5   32   38
    1
    0    0   10
    0    0   -5   32   39
    1
    0    0   10
    0    0   -5   32   40
    1
    0    0   10
    0    0   -5   32   41
    1
    0    0   10
    0    0   -5   32   42
    1
    0    0    0
    0    0   -5   32   43
    1
    0    0   10
    0    0   -5   32   44
    1
    0    0    0
    0    0   -5   32   45
    1
    0    0   10
    0    0   -5   32   46
    1
    0    0    0
    0    0   -5   32   47
    1
    0    0   10
    0    0   -5   32   48
    1
    0    0    0
    0    0   -5   32   49
    1
    0    0   10
    0    0   -5   32   50
    1
    0    0    0
    0    0   -5   33    1
    1
    0    0    0
    0    0   -5   33    2
    1
    0    0    0
    0    0   -5   33    3
    1
    0    0    0
    0    0   -5   33    4
    1
    0    0    0
    0    0   -5   33    5
    1
    0    0    0
    0    0   -5   33    6
    1
    0    0    0
    0    0   -5   33    7
    1
    0    0    0
    0    0   -5   33    8
    1
    0    0    0
    0    0   -5   33    9
    1
    0    0    0
    0    0   -5   33   10
    1
    0    0    0
    0    0   -5   33   11
    1
    0    0    0
    0    0   -5   33   12
    1
    0    0    0
    0    0   -5   33   13
    1
    0    0    0
    0    0   -5   33   14
    1
    0    0    0
    0    0   -5   33   15
    1
    0    0    0
    0    0   -5   33   16
    1
    0    0    0
    0    0   -5   33   17
    1
    0    0    0
    0    0   -5   33   18
    1
    0    0    0
    0    0   -5   33   19
    1
    0    0    0
    0    0   -5   33   20
    1
    0    0    0
    0    0   -5   33   21
    1
    0    0    0
    0    0   -5   33   22
    1
    0    0    0
    0    0   -5   33   23
    1
    0    0    0
    0    0   -5   33   24
    1
    0    0    0
    0    0   -5   33   25
    1
    0    0    0
    0    0   -5   33   26
    1
    0    0    0
    0    0   -5   33   27
    1
    0    0    0
    0    0   -5   33   28
    1
    0    0    0
    0    0   -5   33   29
    1
    0    0    0
    0    0   -5   33   30
    1
    0    0    0
    0    0   -5   33   31
    1
    0    0   10
    0    0   -5   33   32
    1
    0    0    0
    0    0   -5   33   33
    2
    0    0    0
    0    0   10
    0    0   -5   33   34
    1
    0    0    0
    0    0   -5   33   35
    1
    0    0   10
    0    0   -5   33   36
    1
    0    0    0
    0    0   -5   33   37
    1
    0    0   10
    0    0   -5   33   38
    1
    0    0    0
    0    0   -5   33   39
    1
    0    0   10
    0    0   -5   33   40
    1
    0    0    0
    0    0   -5   33   41
    1
    0    0    0
    0    0   -5   33   42
    1
    0    0    0
[...]
    1
    0    0    0
    0    0    5   42   38
    1
    0    0    0
    0    0    5   42   39
    1
    0    0    0
    0    0    5   42   40
    1
    0    0    0
    0    0    5   42   41
    1
    0    0    0
    0    0    5   42   42
    2
    0    0  -10
    0    0    0
    0    0    5   42   43
    1
    0    0    0
    0    0    5   42   44
    1
    0    0    0
    0    0    5   42   45
    1
    0    0    0
    0    0    5   42   46
    1
    0    0  -10
    0    0    5   42   47
    1
    0    0    0
    0    0    5   42   48
    1
    0    0  -10
    0    0    5   42   49
    1
    0    0    0
    0    0    5   42   50
    1
    0    0    0
    0    0    5   43    1
    1
    0    0  -10
    0    0    5   43    2
    1
    0    0  -10
    0    0    5   43    3
    1
    0    0  -10
    0    0    5   43    4
    1
    0    0  -10
    0    0    5   43    5
    1
    0    0  -10
    0    0    5   43    6
    1
    0    0    0
    0    0    5   43    7
    1
    0    0    0
    0    0    5   43    8
    1
    0    0    0
    0    0    5   43    9
    1
    0    0    0
    0    0    5   43   10
    1
    0    0    0
    0    0    5   43   11
    1
    0    0  -10
    0    0    5   43   12
    1
    0    0  -10
    0    0    5   43   13
    1
    0    0  -10
    0    0    5   43   14
    1
    0    0  -10
    0    0    5   43   15
    1
    0    0  -10
    0    0    5   43   16
    1
    0    0  -10
    0    0    5   43   17
    1
    0    0  -10
    0    0    5   43   18
    1
    0    0  -10
    0    0    5   43   19
    1
    0    0  -10
    0    0    5   43   20
    1
    0    0  -10
    0    0    5   43   21
    1
    0    0  -10
    0    0    5   43   22
    1
    0    0  -10
    0    0    5   43   23
    1
    0    0  -10
    0    0    5   43   24
    1
    0    0  -10
    0    0    5   43   25
    1
    0    0  -10
    0    0    5   43   26
    1
    0    0  -10
    0    0    5   43   27
    1
    0    0  -10
    0    0    5   43   28
    1
    0    0  -10
    0    0    5   43   29
    1
    0    0  -10
    0    0    5   43   30
    1
    0    0  -10
    0    0    5   43   31
    1
    0    0    0
    0    0    5   43   32
    1
    0    0  -10
    0    0    5   43   33
    1
    0    0    0
    0    0    5   43   34
    1
    0    0  -10
    0    0    5   43   35
    1
    0    0    0
    0    0    5   43   36
    1
    0    0  -10
    0    0    5   43   37
    1
    0    0    0
    0    0    5   43   38
    1
    0    0  -10
    0    0    5   43   39
    1
    0    0    0
    0    0    5   43   40
    1
    0    0  -10
    0    0    5   43   41
    1
    0    0    0
    0    0    5   43   42
    1
    0    0  -10
    0    0    5   43   43
    2
    0    0  -10
    0    0    0
    0    0    5   43   44
    1
    0    0  -10
    0    0    5   43   45
    1
    0    0    0
    0    0    5   43   46
    1
    0    0  -10
    0    0    5   43   47
    1
    0    0    0
    0    0    5   43   48
    1
    0    0  -10
    0    0    5   43   49
    1
    0    0    0
    0    0    5   43   50
    1
    0    0  -10
    0    0    5   44    1
    1
    0    0    0
    0    0    5   44    2
    1
    0    0    0
    0    0    5   44    3
    1
    0    0    0
    0    0    5   44    4
    1
    0    0    0
    0    0    5   44    5
    1
    0    0    0
    0    0    5   44    6
    1
    0    0    0
    0    0    5   44    7
    1
    0    0    0
    0    0    5   44    8
    1
    0    0    0
    0    0    5   44    9
    1
    0    0    0
    0    0    5   44   10
    1
    0    0    0
    0    0    5   44   11
    1
    0    0    0
    0    0    5   44   12
    1
    0    0    0
    0    0    5   44   13
    1
    0    0    0
    0    0    5   44   14
    1
    0    0    0
    0    0    5   44   15
    1
    0    0    0
    0    0    5   44   16
    1
    0    0    0
    0    0    5   44   17
    1
    0    0    0
    0    0    5   44   18
    1
    0    0    0
    0    0    5   44   19
    1
    0    0    0
    0    0    5   44   20
    1
    0    0    0
    0    0    5   44   21
    1
    0    0  -10
    0    0    5   44   22
    1
    0    0  -10
    0    0    5   44   23
    1
    0    0  -10
    0    0    5   44   24
    1
    0    0  -10
    0    0    5   44   25
    1
    0    0  -10
    0    0    5   44   26
    1
    0    0  -10
    0    0    5   44   27
    1
    0    0  -10
    0    0    5   44   28
    1
    0    0  -10
    0    0    5   44   29
    1
    0    0  -10
    0    0    5   44   30
    1
    0    0  -10
    0    0    5   44   31
    1
    0    0    0
    0    0    5   44   32
    1
    0    0    0
    0    0    5   44   33
    1
    0    0    0
    0    0    5   44   34
    1
    0    0    0
    0    0    5   44   35
    1
    0    0    0
    0    0    5   44   36
    1
    0    0    0
    0    0    5   44   37
    1
    0    0    0
    0    0    5   44   38
    1
    0    0    0
    0    0    5   44   39
    1
    0    0    0
    0    0    5   44   40
    1
    0    0    0
    0    0    5   44   41
    1
    0    0    0
    0    0    5   44   42
    1
    0    0  -10
    0    0    5   44   43
    1
    0    0    0
    0    0    5   44   44
    2
    0    0  -10
    0    0    0
    0    0    5   44   45
    1
    0    0    0
    0    0    5   44   46
    1
    0    0  -10
    0    0    5   44   47
    1
    0    0    0
    0    0    5   44   48
    1
    0    0  -10
    0    0    5   44   49
    1
    0    0    0
    0    0    5   44   50
    1
    0    0  -10
    0    0    5   45    1
    1
    0    0  -10
    0    0    5   45    2
    1
    0    0  -10
    0    0    5   45    3
    1
    0    0  -10
    0    0    5   45    4
    1
    0    0  -10
    0    0    5   45    5
    1
    0    0  -10
    0    0    5   45    6
    1
    0    0    0
    0    0    5   45    7
    1
    0    0    0
    0    0    5   45    8
    1
    0    0    0
    0    0    5   45    9
    1
    0    0    0
    0    0    5   45   10
    1
    0    0    0
    0    0    5   45   11
    1
    0    0  -10
    0    0    5   45   12
    1
    0    0  -10
    0    0    5   45   13
    1
    0    0  -10
    0    0    5   45   14
    1
    0    0  -10
    0    0    5   45   15
    1
    0    0  -10
    0    0    5   45   16
    1
    0    0  -10
    0    0    5   45   17
    1
    0    0  -10
    0    0    5   45   18
    1
    0    0  -10
    0    0    5   45   19
    1
    0    0  -10
    0    0    5   45   20
    1
    0    0  -10
    0    0    5   45   21
    1
    0    0  -10
    0    0    5   45   22
    1
    0    0  -10
    0    0    5   45   23
    1
    0    0  -10
    0    0    5   45   24
    1
    0    0  -10
    0    0    5   45   25
    1
    0    0  -10
    0    0    5   45   26
    1
    0    0  -10
    0    0    5   45   27
    1
    0    0  -10
    0    0    5   45   28
    1
    0    0  -10
    0    0    5   45   29
    1
    0    0  -10
    0    0    5   45   30
    1
    0    0  -10
    0    0    5   45   31
    1
    0    0    0
    0    0    5   45   32
    1
    0    0  -10
    0    0    5   45   33
    1
    0    0    0
    0    0    5   45   34
    1
    0    0  -10
    0    0    5   45   35
    1
    0    0    0
    0    0    5   45   36
    1
    0    0  -10
    0    0    5   45   37
    1
    0    0    0
    0    0    5   45   38
    1
    0    0  -10
    0    0    5   45   39
    1
    0    0    0
    0    0    5   45   40
    1
    0    0  -10
    0    0    5   45   41
    1
    0    0  -10
    0    0    5   45   42
    1
    0    0  -10
    0    0    5   45   43
    1
    0    0  -10
    0    0    5   45   44
    1
    0    0  -10
    0    0    5   45   45
    2
    0    0  -10
    0    0    0
    0    0    5   45   46
    1
    0    0  -10
    0    0    5   45   47
    1
    0    0  -10
    0    0    5   45   48
    1
    0    0  -10
    0    0    5   45   49
    1
    0    0  -10
    0    0    5   45   50
    1
    0    0  -10
    0    0    5   46    1
    1
    0    0    0
    0    0    5   46    2
    1
    0    0    0
    0    0    5   46    3
    1
    0    0    0
    0    0    5   46    4
    1
    0    0    0
    0    0    5   46    5
    1
    0    0    0
    0    0    5   46    6
    1
    0    0    0
    0    0    5   46    7
    1
    0    0    0
    0    0    5   46    8
    1
    0    0    0
    0    0    5   46    9
    1
    0    0    0
    0    0    5   46   10
    1
    0    0    0
    0    0    5   46   11
    1
    0    0    0
    0    0    5   46   12
    1
    0    0    0
    0    0    5   46   13
    1
    0    0    0
    0    0    5   46   14
    1
    0    0    0
    0    0    5   46   15
    1
    0    0    0
    0    0    5   46   16
    1
    0    0    0
    0    0    5   46   17
    1
    0    0    0
    0    0    5   46   18
    1
    0    0    0
    0    0    5   46   19
    1
    0    0    0
    0    0    5   46   20
    1
    0    0    0
    0    0    5   46   21
    1
    0    0  -10
    0    0    5   46   22
    1
    0    0  -10
    0    0    5   46   23
    1
    0    0  -10
    0    0    5   46   24
    1
    0    0  -10
    0    0    5   46   25
    1
    0    0  -10
    0    0    5   46   26
    1
    0    0  -10
    0    0    5   46   27
    1
    0    0  -10
    0    0    5   46   28
    1
    0    0  -10
    0    0    5   46   29
    1
    0    0  -10
    0    0    5   46   30
    1
    0    0  -10
    0    0    5   46   31
    1
    0    0    0
    0    0    5   46   32
    1
    0    0    0
    0    0    5   46   33
    1
    0    0    0
    0    0    5   46   34
    1
    0    0    0
    0    0    5   46   35
    1
    0    0    0
    0    0    5   46   36
    1
    0    0    0
    0    0    5   46   37
    1
    0    0    0
    0    0    5   46   38
    1
    0    0    0
    0    0    5   46   39
    1
    0    0    0
    0    0    5   46   40
    1
    0    0    0
    0    0    5   46   41
    1
    0    0    0
    0    0    5   46   42
    1
    0    0    0
    0    0    5   46   43
    1
    0    0    0
    0    0    5   46   44
    1
    0    0    0
    0    0    5   46   45
    1
    0    0    0
    0    0    5   46   46
    2
    0    0  -10
    0    0    0
    0    0    5   46   47
    1
    0    0    0
    0    0    5   46   48
    1
    0    0    0
    0    0    5   46   49
    1
    0    0    0
    0    0    5   46   50
    1
    0    0    0
    0    0    5   47    1
    1
    0    0  -10
    0    0    5   47    2
    1
    0    0  -10
    0    0    5   47    3
    1
    0    0  -10
    0    0    5   47    4
    1
    0    0  -10
    0    0    5   47    5
    1
    0    0  -10
    0    0    5   47    6
    1
    0    0    0
    0    0    5   47    7
    1
    0    0    0
    0    0    5   47    8
    1
    0    0    0
    0    0    5   47    9
    1
    0    0    0
    0    0    5   47   10
    1
    0    0    0
    0    0    5   47   11
    1
    0    0  -10
    0    0    5   47   12
    1
    0    0  -10
    0    0    5   47   13
    1
    0    0  -10
    0    0    5   47   14
    1
    0    0  -10
    0    0    5   47   15
    1
    0    0  -10
    0    0    5   47   16
    1
    0    0  -10
    0    0    5   47   17
    1
    0    0  -10
    0    0    5   47   18
    1
    0    0  -10
    0    0    5   47   19
    1
    0    0  -10
    0    0    5   47   20
    1
    0    0  -10
    0    0    5   47   21
    1
    0    0  -10
    0    0    5   47   22
    1
    0    0  -10
    0    0    5   47   23
    1
    0    0  -10
    0    0    5   47   24
    1
    0    0  -10
    0    0    5   47   25
    1
    0    0  -10
    0    0    5   47   26
    1
    0    0  -10
    0    0    5   47   27
    1
    0    0  -10
    0    0    5   47   28
    1
    0    0  -10
    0    0    5   47   29
    1
    0    0  -10
    0    0    5   47   30
    1
    0    0  -10
    0    0    5   47   31
    1
    0    0    0
    0    0    5   47   32
    1
    0    0  -10
    0    0    5   47   33
    1
    0    0    0
    0    0    5   47   34
    1
    0    0  -10
    0    0    5   47   35
    1
    0    0    0
    0    0    5   47   36
    1
    0    0  -10
    0    0    5   47   37
    1
    0    0    0
    0    0    5   47   38
    1
    0    0  -10
    0    0    5   47   39
    1
    0    0    0
    0    0    5   47   40
    1
    0    0  -10
    0    0    5   47   41
    1
    0    0  -10
    0    0    5   47   42
    1
    0    0  -10
    0    0    5   47   43
    1
    0    0  -10
    0    0    5   47   44
    1
    0    0  -10
    0    0    5   47   45
    1
    0    0    0
    0    0    5   47   46
    1
    0    0  -10
    0    0    5   47   47
    2
    0    0  -10
    0    0    0
    0    0    5   47   48
    1
    0    0  -10
    0    0    5   47   49
    1
    0    0  -10
    0    0    5   47   50
    1
    0    0  -10
    0    0    5   48    1
    1
    0    0    0
    0    0    5   48    2
    1
    0    0    0
    0    0    5   48    3
    1
    0    0    0
    0    0    5   48    4
    1
    0    0    0
    0    0    5   48    5
    1
    0    0    0
    0    0    5   48    6
    1
    0    0    0
    0    0    5   48    7
    1
    0    0    0
    0    0    5   48    8
    1
    0    0    0
    0    0    5   48    9
    1
    0    0    0
    0    0    5   48   10
    1
    0    0    0
    0    0    5   48   11
    1
    0    0    0
    0    0    5   48   12
    1
    0    0    0
    0    0    5   48   13
    1
    0    0    0
    0    0    5   48   14
    1
    0    0    0
    0    0    5   48   15
    1
    0    0    0
    0    0    5   48   16
    1
    0    0    0
    0    0    5   48   17
    1
    0    0    0
    0    0    5   48   18
    1
    0    0    0
    0    0    5   48   19
    1
    0    0    0
    0    0    5   48   20
    1
    0    0    0
    0    0    5   48   21
    1
    0    0  -10
    0    0    5   48   22
    1
    0    0  -10
    0    0    5   48   23
    1
    0    0  -10
    0    0    5   48   24
    1
    0    0  -10
    0    0    5   48   25
    1
    0    0  -10
    0    0    5   48   26
    1
    0    0  -10
    0    0    5   48   27
    1
    0    0  -10
    0    0    5   48   28
    1
    0    0  -10
    0    0    5   48   29
    1
    0    0  -10
    0    0    5   48   30
    1
    0    0  -10
    0    0    5   48   31
    1
    0    0    0
    0    0    5   48   32
    1
    0    0    0
    0    0    5   48   33
    1
    0    0    0
    0    0    5   48   34
    1
    0    0    0
    0    0    5   48   35
    1
    0    0    0
    0    0    5   48   36
    1
    0    0    0
    0    0    5   48   37
    1
    0    0    0
    0    0    5   48   38
    1
    0    0    0
    0    0    5   48   39
    1
    0    0    0
    0    0    5   48   40
    1
    0    0    0
    0    0    5   48   41
    1
    0    0    0
    0    0    5   48   42
    1
    0    0    0
    0    0    5   48   43
    1
    0    0    0
    0    0    5   48   44
    1
    0    0    0
    0    0    5   48   45
    1
    0    0    0
    0    0    5   48   46
    1
    0    0  -10
    0    0    5   48   47
    1
    0    0    0
    0    0    5   48   48
    2
    0    0  -10
    0    0    0
    0    0    5   48   49
    1
    0    0    0
    0    0    5   48   50
    1
    0    0    0
    0    0    5   49    1
    1
    0    0  -10
    0    0    5   49    2
    1
    0    0  -10
    0    0    5   49    3
    1
    0    0  -10
    0    0    5   49    4
    1
    0    0  -10
    0    0    5   49    5
    1
    0    0  -10
    0    0    5   49    6
    1
    0    0    0
    0    0    5   49    7
    1
    0    0    0
    0    0    5   49    8
    1
    0    0    0
    0    0    5   49    9
    1
    0    0    0
    0    0    5   49   10
    1
    0    0    0
    0    0    5   49   11
    1
    0    0  -10
    0    0    5   49   12
    1
    0    0  -10
    0    0    5   49   13
    1
    0    0  -10
    0    0    5   49   14
    1
    0    0  -10
    0    0    5   49   15
    1
    0    0  -10
    0    0    5   49   16
    1
    0    0  -10
    0    0    5   49   17
    1
    0    0  -10
    0    0    5   49   18
    1
    0    0  -10
    0    0    5   49   19
    1
    0    0  -10
    0    0    5   49   20
    1
    0    0  -10
    0    0    5   49   21
    1
    0    0  -10
    0    0    5   49   22
    1
    0    0  -10
    0    0    5   49   23
    1
    0    0  -10
    0    0    5   49   24
    1
    0    0  -10
    0    0    5   49   25
    1
    0    0  -10
    0    0    5   49   26
    1
    0    0  -10
    0    0    5   49   27
    1
    0    0  -10
    0    0    5   49   28
    1
    0    0  -10
    0    0    5   49   29
    1
    0    0  -10
    0    0    5   49   30
    1
    0    0  -10
    0    0    5   49   31
    1
    0    0    0
    0    0    5   49   32
    1
    0    0  -10
    0    0    5   49   33
    1
    0    0    0
    0    0    5   49   34
    1
    0    0  -10
    0    0    5   49   35
    1
    0    0    0
    0    0    5   49   36
    1
    0    0  -10
    0    0    5   49   37
    1
    0    0    0
    0    0    5   49   38
    1
    0    0  -10
    0    0    5   49   39
    1
    0    0    0
    0    0    5   49   40
    1
    0    0  -10
    0    0    5   49   41
    1
    0    0  -10
    0    0    5   49   42
    1
    0    0  -10
    0    0    5   49   43
    1
    0    0  -10
    0    0    5   49   44
    1
    0    0  -10
    0    0    5   49   45
    1
    0    0    0
    0    0    5   49   46
    1
    0    0  -10
    0    0    5   49   47
    1
    0    0    0
    0    0    5   49   48
    1
    0    0  -10
    0    0    5   49   49
    2
    0    0  -10
    0    0    0
    0    0    5   49   50
    1
    0    0  -10
    0    0    5   50    1
    1
    0    0    0
    0    0    5   50    2
    1
    0    0    0
    0    0    5   50    3
    1
    0    0    0
    0    0    5   50    4
    1
    0    0    0
    0    0    5   50    5
    1
    0    0    0
    0    0    5   50    6
    1
    0    0    0
    0    0    5   50    7
    1
    0    0    0
    0    0    5   50    8
    1
    0    0    0
    0    0    5   50    9
    1
    0    0    0
    0    0    5   50   10
    1
    0    0    0
    0    0    5   50   11
    1
    0    0    0
    0    0    5   50   12
    1
    0    0    0
    0    0    5   50   13
    1
    0    0    0
    0    0    5   50   14
    1
    0    0    0
    0    0    5   50   15
    1
    0    0    0
    0    0    5   50   16
    1
    0    0    0
    0    0    5   50   17
    1
    0    0    0
    0    0    5   50   18
    1
    0    0    0
    0    0    5   50   19
    1
    0    0    0
    0    0    5   50   20
    1
    0    0    0
    0    0    5   50   21
    1
    0    0  -10
    0    0    5   50   22
    1
    0    0  -10
    0    0    5   50   23
    1
    0    0  -10
    0    0    5   50   24
    1
    0    0  -10
    0    0    5   50   25
    1
    0    0  -10
    0    0    5   50   26
    1
    0    0  -10
    0    0    5   50   27
    1
    0    0  -10
    0    0    5   50   28
    1
    0    0  -10
    0    0    5   50   29
    1
    0    0  -10
    0    0    5   50   30
    1
    0    0  -10
    0    0    5   50   31
    1
    0    0    0
    0    0    5   50   32
    1
    0    0    0
    0    0    5   50   33
    1
    0    0    0
    0    0    5   50   34
    1
    0    0    0
    0    0    5   50   35
    1
    0    0    0
    0    0    5   50   36
    1
    0    0    0
    0    0    5   50   37
    1
    0    0    0
    0    0    5   50   38
    1
    0    0    0
    0    0    5   50   39
    1
    0    0    0
    0    0    5   50   40
    1
    0    0    0
    0    0    5   50   41
    1
    0    0    0
    0    0    5   50   42
    1
    0    0  -10
    0    0    5   50   43
    1
    0    0    0
    0    0    5   50   44
    1
    0    0    0
    0    0    5   50   45
    1
    0    0    0
    0    0    5   50   46
    1
    0    0  -10
    0    0    5   50   47
    1
    0    0    0
    0    0    5   50   48
    1
    0    0  -10
    0    0    5   50   49
    1
    0    0    0
    0    0    5   50   50
    2
    0    0  -10
    0    0    0
