
     Program PWSCF v.6.5 starts on 24Nov2020 at 15:35: 0 

     This program is part of the open-source Quantum ESPRESSO suite
     for quantum simulation of materials; please cite
         "P. Giannozzi et al., J. Phys.:Condens. Matter 21 395502 (2009);
         "P. Giannozzi et al., J. Phys.:Condens. Matter 29 465901 (2017);
          URL http://www.quantum-espresso.org", 
     in publications or presentations arising from this work. More details at
     http://www.quantum-espresso.org/quote

     Parallel version (MPI), running on    24 processors

     MPI processes distributed on     1 nodes
     R & G space division:  proc/nbgrp/npool/nimage =      24
     Waiting for input...
     Reading input from standard input

     Current dimensions of program PWSCF are:
     Max number of different atomic species (ntypx) = 10
     Max number of k-points (npk) =  40000
     Max angular momentum in pseudopotentials (lmaxx) =  3

     Atomic positions and unit cell read from directory:
     ./cnt.save/                                                                                                                                                                                                                                                     


     Subspace diagonalization in iterative solution of the eigenvalue problem:
     a serial algorithm will be used


     Parallelization info
     --------------------
     sticks:   dense  smooth     PW     G-vecs:    dense   smooth      PW
     Min         541     541    161                14352    14352    2327
     Max         543     543    162                14353    14353    2329
     Sum       13015   13015   3871               344461   344461   55859



     bravais-lattice index     =            8
     lattice parameter (alat)  =      26.2945  a.u.
     unit-cell volume          =    5489.1651 (a.u.)^3
     number of atoms/cell      =           20
     number of atomic types    =            1
     number of electrons       =        80.00
     number of Kohn-Sham states=          100
     kinetic-energy cutoff     =      60.0000  Ry
     charge density cutoff     =     240.0000  Ry
     Exchange-correlation=  SLA  PZ   NOGX NOGC
                           (   1   1   0   0   0   0   0)

     celldm(1)=  26.294500  celldm(2)=   0.986199  celldm(3)=   0.306159
     celldm(4)=   0.000000  celldm(5)=   0.000000  celldm(6)=   0.000000

     crystal axes: (cart. coord. in units of alat)
               a(1) = (   1.000000   0.000000   0.000000 )  
               a(2) = (   0.000000   0.986199   0.000000 )  
               a(3) = (   0.000000   0.000000   0.306159 )  

     reciprocal axes: (cart. coord. in units 2 pi/alat)
               b(1) = (  1.000000  0.000000  0.000000 )  
               b(2) = (  0.000000  1.013995  0.000000 )  
               b(3) = (  0.000000  0.000000  3.266276 )  


     PseudoPot. # 1 for C  read from file:
     ../../pseudo/C.pz-vbc.UPF
     MD5 check sum: 902016046bf83189dffe9ec1c2a452ce
     Pseudo is Norm-conserving, Zval =  4.0
     Generated by new atomic code, or converted to UPF format
     Using radial grid of  269 points,  1 beta functions with: 
                l(1) =   0

     atomic species   valence    mass     pseudopotential
        C              4.00    12.00000     C ( 1.00)

     No symmetry found



   Cartesian axes

     site n.     atom                  positions (alat units)
         1           C   tau(   1) = (   0.1137970   0.0826783   0.0000000  )
         2           C   tau(   2) = (   0.0434666   0.1337764   0.1530783  )
         3           C   tau(   3) = (  -0.0434666   0.1337764   0.0000000  )
         4           C   tau(   4) = (  -0.1137970   0.0826783   0.1530783  )
         5           C   tau(   5) = (  -0.1406608   0.0000000   0.0000000  )
         6           C   tau(   6) = (  -0.1137970  -0.0826783   0.1530783  )
         7           C   tau(   7) = (  -0.0434666  -0.1337764   0.0000000  )
         8           C   tau(   8) = (   0.0434666  -0.1337764   0.1530783  )
         9           C   tau(   9) = (   0.1137970  -0.0826783   0.0000000  )
        10           C   tau(  10) = (   0.1406608   0.0000000   0.1530783  )
        11           C   tau(  11) = (   0.1137970  -0.0826783   0.1020522  )
        12           C   tau(  12) = (   0.1406608   0.0000000   0.2551305  )
        13           C   tau(  13) = (   0.1137970   0.0826783   0.1020522  )
        14           C   tau(  14) = (   0.0434666   0.1337764   0.2551305  )
        15           C   tau(  15) = (  -0.0434666   0.1337764   0.1020522  )
        16           C   tau(  16) = (  -0.1137970   0.0826783   0.2551305  )
        17           C   tau(  17) = (  -0.1406608   0.0000000   0.1020522  )
        18           C   tau(  18) = (  -0.1137970  -0.0826783   0.2551305  )
        19           C   tau(  19) = (  -0.0434666  -0.1337764   0.1020522  )
        20           C   tau(  20) = (   0.0434666  -0.1337764   0.2551305  )

     number of k points=    10  Gaussian smearing, width (Ry)=  0.0200
                       cart. coord. in units 2pi/alat
        k(    1) = (   0.0000000   0.0000000   0.0000000), wk =   0.2000000
        k(    2) = (   0.0000000   0.0000000   0.3266276), wk =   0.2000000
        k(    3) = (   0.0000000   0.0000000   0.6532552), wk =   0.2000000
        k(    4) = (   0.0000000   0.0000000   0.9798827), wk =   0.2000000
        k(    5) = (   0.0000000   0.0000000   1.3065103), wk =   0.2000000
        k(    6) = (   0.0000000   0.0000000   1.6331379), wk =   0.2000000
        k(    7) = (   0.0000000   0.0000000   1.9597655), wk =   0.2000000
        k(    8) = (   0.0000000   0.0000000   2.2863931), wk =   0.2000000
        k(    9) = (   0.0000000   0.0000000   2.6130206), wk =   0.2000000
        k(   10) = (   0.0000000   0.0000000   2.9396482), wk =   0.2000000

     Dense  grid:   344461 G-vectors     FFT dimensions: ( 135, 128,  40)

     Estimated max dynamical RAM per process >      36.96 MB

     Estimated total dynamical RAM >     886.96 MB

     The potential is recalculated from file :
     ./cnt.save/charge-density

     Starting wfcs are   80 randomized atomic wfcs +   20 random wfcs

     Band Structure Calculation
     Davidson diagonalization with overlap

     ethr =  1.25E-12,  avg # of iterations = 38.4

     total cpu time spent up to now is       37.9 secs

     End of band structure calculation

          k = 0.0000 0.0000 0.0000 ( 43017 PWs)   bands (ev):

   -22.6931 -21.5148 -21.5147 -18.8146 -18.8146 -17.6416 -16.5868 -16.5868
   -16.1367 -15.4109 -15.4107 -15.2589 -15.2586 -14.1430 -14.1428 -12.6739
   -12.6739 -11.2656 -11.2654 -11.0294 -10.9770 -10.9770 -10.0020 -10.0020
    -9.6535  -9.6532  -8.9185  -7.4984  -7.4984  -6.4215  -6.4211  -5.6176
    -5.6174  -5.5504  -5.3232  -5.2437  -3.8118  -3.8112  -3.4792  -2.3661
    -2.3660  -1.8826  -1.8819  -0.6635  -0.6632   1.5491   2.3784   2.4002
     2.5593   2.7552   3.0587   3.0895   3.1923   3.1924   3.4784   3.4935
     3.9004   3.9313   4.6258   4.6263   4.9510   4.9838   4.9909   5.0024
     5.1446   5.3575   5.6190   5.7256   5.8168   5.8182   6.0830   6.1723
     6.3418   6.6338   6.8266   7.1774   7.2524   7.2734   7.7150   7.7385
     7.7388   7.7485   7.7710   7.7815   7.9573   8.3435   8.5790   8.9905
     9.0047   9.0898   9.3181   9.4161   9.4595   9.4831   9.5639  10.0915
    10.1751  10.1758  10.3297  10.3452

          k = 0.0000 0.0000 0.3266 ( 43054 PWs)   bands (ev):

   -22.6339 -21.4571 -21.4571 -18.7590 -18.7590 -18.1806 -17.1246 -17.1245
   -15.5140 -15.3982 -15.3981 -14.6548 -14.6548 -14.5374 -14.5372 -12.1960
   -12.1960 -11.3869 -11.3869 -11.1977 -11.1976 -10.9724  -9.6449  -9.6448
    -9.6351  -9.6350  -8.8573  -7.6712  -7.6709  -6.4492  -6.4488  -5.7930
    -5.7060  -5.5591  -5.5589  -5.4641  -4.2233  -4.2231  -3.0257  -2.4996
    -2.4993  -1.4708  -1.4707  -0.5930  -0.5926   1.6291   2.4583   2.4800
     2.5847   2.6203   2.9655   3.0564   3.1425   3.2452   3.5692   3.5835
     3.9857   4.1161   4.4540   4.4542   5.0573   5.0770   5.0905   5.1037
     5.2344   5.6236   5.6299   5.6324   5.7086   5.8151   6.1681   6.2564
     6.4169   6.7363   6.9270   7.2371   7.2378   7.2547   7.3302   7.5224
     7.7919   7.8112   7.9274   8.0231   8.2169   8.2181   8.3992   8.5119
     8.7880   8.9344   8.9609   9.2174   9.2834   9.5060   9.5937   9.6155
     9.6270   9.6372   9.6667  10.0163

          k = 0.0000 0.0000 0.6533 ( 43076 PWs)   bands (ev):

   -22.4567 -21.2845 -21.2845 -19.0379 -18.5928 -18.5927 -17.9604 -17.9602
   -15.5988 -15.5986 -14.9193 -14.9193 -14.4089 -13.6324 -13.6322 -12.0687
   -12.0686 -11.3357 -11.3354 -10.9887 -10.9886 -10.8098  -9.6246  -9.6245
    -9.1410  -9.1409  -8.6757  -8.0261  -8.0260  -6.6399  -6.6397  -6.5361
    -6.4522  -5.8426  -5.3894  -5.3890  -5.0005  -5.0003  -2.8538  -2.8538
    -2.2171  -0.6879  -0.6869  -0.3904  -0.3901   1.8676   2.1441   2.5375
     2.5728   2.6955   2.7170   2.9735   3.3871   3.4765   3.8256   3.8376
     3.9971   3.9990   4.2350   4.6517   5.3447   5.3620   5.3740   5.3913
     5.4869   5.5419   5.5423   5.9578   6.0690   6.2847   6.3029   6.3718
     6.4598   6.5635   6.6259   6.6374   6.8907   6.9735   7.4933   7.5373
     7.5694   7.7467   7.7675   8.0867   8.1776   8.1787   8.2619   8.2797
     8.4113   8.6592   8.7794   8.8510   8.9051   8.9277   8.9661   9.0330
     9.3276   9.3346   9.4740   9.6932

          k = 0.0000 0.0000 0.9799 ( 43122 PWs)   bands (ev):

   -22.1624 -20.9978 -20.9976 -19.8607 -18.7592 -18.7590 -18.3172 -18.3172
   -16.2252 -16.2252 -14.7624 -14.7623 -13.1950 -12.7547 -12.7546 -12.5674
   -12.5672 -10.6211 -10.6209 -10.5833 -10.4451 -10.4449  -9.7707  -9.7705
    -8.8088  -8.8088  -8.3788  -8.3184  -8.3184  -7.3654  -7.3633  -7.0373
    -7.0370  -6.3635  -5.8016  -5.8014  -5.1226  -5.1225  -3.3341  -3.3335
    -1.3960  -0.0705  -0.0703   0.1472   0.1482   1.5344   2.0275   2.0319
     2.2729   3.0510   3.0682   3.3375   3.3735   3.3779   3.7921   3.8682
     4.2655   4.2777   4.6410   5.4190   5.4850   5.6038   5.6447   5.7663
     5.8132   5.8246   5.8321   5.8694   5.8706   5.9491   6.1856   6.2220
     6.3713   6.4381   6.5198   6.8369   6.8645   6.9402   6.9871   7.0811
     7.4708   7.5008   7.5249   7.5843   7.6703   7.8897   7.9492   7.9677
     8.0482   8.4700   8.5425   8.6640   8.8487   8.9321   9.0199   9.0534
     9.0593   9.0876   9.1197   9.1996

          k = 0.0000 0.0000 1.3065 ( 43118 PWs)   bands (ev):

   -21.7524 -20.5983 -20.5982 -20.5962 -19.4736 -19.4735 -17.9352 -17.9352
   -16.8745 -16.8745 -14.4113 -14.4112 -13.3892 -13.3891 -11.9748 -11.5901
   -11.5898 -10.4619 -10.1834 -10.1832 -10.0598 -10.0597  -9.6499  -9.6496
    -8.7663  -8.7659  -8.6455  -8.6455  -8.2336  -8.0728  -7.9766  -7.3130
    -7.3129  -6.9336  -6.5201  -6.5197  -4.7719  -4.7717  -3.8519  -3.8513
    -0.6155   0.3546   0.3547   0.8506   0.9714   0.9721   1.4408   1.4413
     2.5568   2.5573   2.8326   3.6778   3.6989   3.8912   4.3569   4.4104
     4.4267   4.8412   4.8532   5.1970   5.2259   5.2449   5.3963   5.4170
     5.4689   5.8751   5.9025   6.2481   6.2910   6.3158   6.3553   6.4451
     6.4538   6.5158   6.5426   6.6172   6.6196   6.6517   6.7109   6.9838
     7.0027   7.1809   7.3264   7.4510   7.4983   8.0142   8.0582   8.0745
     8.0948   8.1808   8.4410   8.4469   8.5195   8.6240   8.6632   8.9497
     9.0097   9.0100   9.0301   9.0560

          k = 0.0000 0.0000 1.6331 ( 43144 PWs)   bands (ev):

   -21.2292 -21.2290 -20.0890 -20.0889 -20.0888 -20.0888 -17.4516 -17.4515
   -17.4514 -17.4513 -13.9471 -13.9470 -13.9469 -13.9468 -10.9222 -10.9221
   -10.7962 -10.7961 -10.7961 -10.7960  -9.3225  -9.3223  -9.3222  -9.3220
    -9.0588  -9.0587  -9.0584  -9.0583  -8.4935  -8.4934  -7.4859  -7.4855
    -7.0774  -7.0773  -7.0773  -7.0772  -4.3435  -4.3434  -4.3433  -4.3432
     0.1300   0.1301   0.8675   0.8675   0.8676   0.8677   1.7766   1.7767
     1.7773   1.7774   3.5513   3.5513   4.3791   4.3791   4.3998   4.3998
     4.6040   4.6040   5.0763   5.0763   5.0915   5.0915   5.4883   5.4883
     5.5030   5.5030   5.7893   5.7893   5.8227   5.8227   5.8781   5.8782
     6.8794   6.8794   7.1505   7.1505   7.1793   7.1793   7.2431   7.2431
     7.2468   7.2468   7.5975   7.5976   7.6957   7.6957   7.7450   7.7451
     7.7510   7.7511   7.8062   7.8062   8.1596   8.1596   8.2019   8.2019
     9.1237   9.1237   9.2067   9.2067

          k = 0.0000 0.0000 1.9598 ( 43118 PWs)   bands (ev):

   -21.7524 -20.5983 -20.5982 -20.5962 -19.4736 -19.4735 -17.9352 -17.9352
   -16.8745 -16.8745 -14.4113 -14.4112 -13.3892 -13.3891 -11.9748 -11.5901
   -11.5898 -10.4619 -10.1834 -10.1832 -10.0598 -10.0597  -9.6499  -9.6496
    -8.7663  -8.7659  -8.6455  -8.6455  -8.2336  -8.0728  -7.9766  -7.3130
    -7.3129  -6.9336  -6.5201  -6.5197  -4.7719  -4.7717  -3.8519  -3.8513
    -0.6155   0.3546   0.3547   0.8506   0.9714   0.9721   1.4408   1.4413
     2.5568   2.5573   2.8326   3.6778   3.6989   3.8912   4.3569   4.4104
     4.4267   4.8412   4.8532   5.1970   5.2259   5.2449   5.3963   5.4170
     5.4689   5.8751   5.9025   6.2481   6.2910   6.3158   6.3553   6.4451
     6.4538   6.5158   6.5426   6.6172   6.6196   6.6517   6.7109   6.9838
     7.0027   7.1809   7.3264   7.4510   7.4983   8.0142   8.0582   8.0745
     8.0948   8.1808   8.4410   8.4469   8.5195   8.6240   8.6632   8.9497
     9.0097   9.0100   9.0301   9.0560

          k = 0.0000 0.0000 2.2864 ( 43122 PWs)   bands (ev):

   -22.1624 -20.9978 -20.9976 -19.8607 -18.7592 -18.7590 -18.3172 -18.3172
   -16.2252 -16.2252 -14.7624 -14.7623 -13.1950 -12.7547 -12.7546 -12.5674
   -12.5672 -10.6211 -10.6209 -10.5833 -10.4451 -10.4449  -9.7707  -9.7705
    -8.8088  -8.8088  -8.3788  -8.3184  -8.3184  -7.3654  -7.3633  -7.0373
    -7.0370  -6.3635  -5.8016  -5.8014  -5.1226  -5.1225  -3.3341  -3.3335
    -1.3960  -0.0705  -0.0703   0.1472   0.1482   1.5344   2.0275   2.0319
     2.2729   3.0510   3.0682   3.3375   3.3735   3.3779   3.7921   3.8682
     4.2655   4.2777   4.6410   5.4190   5.4850   5.6038   5.6447   5.7663
     5.8132   5.8246   5.8321   5.8694   5.8706   5.9491   6.1856   6.2220
     6.3713   6.4381   6.5198   6.8369   6.8645   6.9402   6.9871   7.0811
     7.4708   7.5008   7.5249   7.5843   7.6703   7.8897   7.9492   7.9677
     8.0482   8.4700   8.5425   8.6640   8.8487   8.9321   9.0199   9.0534
     9.0593   9.0876   9.1197   9.1996

          k = 0.0000 0.0000 2.6130 ( 43076 PWs)   bands (ev):

   -22.4567 -21.2845 -21.2845 -19.0379 -18.5928 -18.5927 -17.9604 -17.9602
   -15.5988 -15.5986 -14.9193 -14.9193 -14.4089 -13.6324 -13.6322 -12.0687
   -12.0686 -11.3357 -11.3354 -10.9887 -10.9886 -10.8098  -9.6246  -9.6245
    -9.1410  -9.1409  -8.6757  -8.0261  -8.0260  -6.6399  -6.6397  -6.5361
    -6.4522  -5.8426  -5.3894  -5.3890  -5.0005  -5.0003  -2.8538  -2.8538
    -2.2171  -0.6879  -0.6869  -0.3904  -0.3901   1.8676   2.1441   2.5375
     2.5728   2.6955   2.7170   2.9735   3.3871   3.4765   3.8256   3.8376
     3.9971   3.9990   4.2350   4.6517   5.3447   5.3620   5.3740   5.3913
     5.4869   5.5419   5.5423   5.9578   6.0690   6.2847   6.3029   6.3718
     6.4598   6.5635   6.6259   6.6374   6.8907   6.9735   7.4933   7.5373
     7.5694   7.7467   7.7675   8.0867   8.1776   8.1787   8.2619   8.2797
     8.4113   8.6592   8.7794   8.8510   8.9051   8.9277   8.9661   9.0330
     9.3276   9.3346   9.4740   9.6932

          k = 0.0000 0.0000 2.9396 ( 43054 PWs)   bands (ev):

   -22.6339 -21.4571 -21.4571 -18.7590 -18.7590 -18.1806 -17.1246 -17.1245
   -15.5140 -15.3982 -15.3981 -14.6548 -14.6548 -14.5374 -14.5372 -12.1960
   -12.1960 -11.3869 -11.3869 -11.1977 -11.1976 -10.9724  -9.6449  -9.6448
    -9.6351  -9.6350  -8.8573  -7.6712  -7.6709  -6.4492  -6.4488  -5.7930
    -5.7060  -5.5591  -5.5589  -5.4641  -4.2233  -4.2231  -3.0257  -2.4996
    -2.4993  -1.4708  -1.4707  -0.5930  -0.5926   1.6291   2.4583   2.4800
     2.5847   2.6203   2.9655   3.0564   3.1425   3.2452   3.5692   3.5835
     3.9857   4.1161   4.4540   4.4542   5.0573   5.0770   5.0905   5.1037
     5.2344   5.6236   5.6299   5.6324   5.7086   5.8151   6.1681   6.2564
     6.4169   6.7363   6.9270   7.2371   7.2378   7.2547   7.3302   7.5224
     7.7919   7.8112   7.9274   8.0231   8.2169   8.2181   8.3992   8.5119
     8.7880   8.9344   8.9609   9.2174   9.2834   9.5060   9.5937   9.6155
     9.6270   9.6372   9.6667  10.0163

     the Fermi energy is    -2.4651 ev

     Writing output data file ./cnt.save/

     init_run     :      0.16s CPU      0.32s WALL (       1 calls)
     electrons    :     37.04s CPU     37.50s WALL (       1 calls)

     Called by init_run:
     wfcinit      :      0.00s CPU      0.14s WALL (       1 calls)
     potinit      :      0.01s CPU      0.02s WALL (       1 calls)
     hinit0       :      0.06s CPU      0.07s WALL (       1 calls)

     Called by electrons:
     c_bands      :     37.03s CPU     37.49s WALL (       1 calls)
     v_of_rho     :      0.00s CPU      0.01s WALL (       1 calls)

     Called by c_bands:
     init_us_2    :      0.00s CPU      0.00s WALL (      10 calls)
     cegterg      :     35.88s CPU     36.29s WALL (      22 calls)

     Called by sum_band:

     Called by *egterg:
     h_psi        :     18.06s CPU     18.38s WALL (     416 calls)
     g_psi        :      0.17s CPU      0.17s WALL (     384 calls)
     cdiaghg      :     10.65s CPU     10.65s WALL (     394 calls)

     Called by h_psi:
     h_psi:calbec :      0.27s CPU      0.28s WALL (     416 calls)
     vloc_psi     :     17.40s CPU     17.70s WALL (     416 calls)
     add_vuspsi   :      0.22s CPU      0.23s WALL (     416 calls)

     General routines
     calbec       :      0.27s CPU      0.28s WALL (     416 calls)
     fft          :      0.00s CPU      0.01s WALL (       3 calls)
     fftw         :     15.53s CPU     15.79s WALL (   39416 calls)
     davcio       :      0.00s CPU      0.04s WALL (      20 calls)

     Parallel routines
     fft_scatt_xy :      2.57s CPU      2.61s WALL (   39419 calls)
     fft_scatt_yz :      5.87s CPU      5.98s WALL (   39419 calls)

     PWSCF        :     38.11s CPU     41.37s WALL


   This run was terminated on:  15:35:41  24Nov2020            

=------------------------------------------------------------------------------=
   JOB DONE.
=------------------------------------------------------------------------------=
