
     Program PWSCF v.6.5 starts on 24Nov2020 at 15:34:33 

     This program is part of the open-source Quantum ESPRESSO suite
     for quantum simulation of materials; please cite
         "P. Giannozzi et al., J. Phys.:Condens. Matter 21 395502 (2009);
         "P. Giannozzi et al., J. Phys.:Condens. Matter 29 465901 (2017);
          URL http://www.quantum-espresso.org", 
     in publications or presentations arising from this work. More details at
     http://www.quantum-espresso.org/quote

     Parallel version (MPI), running on    24 processors

     MPI processes distributed on     1 nodes
     R & G space division:  proc/nbgrp/npool/nimage =      24
     Waiting for input...
     Reading input from standard input

     Current dimensions of program PWSCF are:
     Max number of different atomic species (ntypx) = 10
     Max number of k-points (npk) =  40000
     Max angular momentum in pseudopotentials (lmaxx) =  3

     Subspace diagonalization in iterative solution of the eigenvalue problem:
     a serial algorithm will be used


     Parallelization info
     --------------------
     sticks:   dense  smooth     PW     G-vecs:    dense   smooth      PW
     Min         541     541    161                14352    14352    2327
     Max         543     543    162                14353    14353    2329
     Sum       13015   13015   3871               344461   344461   55859



     bravais-lattice index     =            8
     lattice parameter (alat)  =      26.2945  a.u.
     unit-cell volume          =    5489.1651 (a.u.)^3
     number of atoms/cell      =           20
     number of atomic types    =            1
     number of electrons       =        80.00
     number of Kohn-Sham states=           48
     kinetic-energy cutoff     =      60.0000  Ry
     charge density cutoff     =     240.0000  Ry
     convergence threshold     =      1.0E-09
     mixing beta               =       0.2000
     number of iterations used =            8  plain     mixing
     Exchange-correlation=  SLA  PZ   NOGX NOGC
                           (   1   1   0   0   0   0   0)

     celldm(1)=  26.294500  celldm(2)=   0.986199  celldm(3)=   0.306159
     celldm(4)=   0.000000  celldm(5)=   0.000000  celldm(6)=   0.000000

     crystal axes: (cart. coord. in units of alat)
               a(1) = (   1.000000   0.000000   0.000000 )  
               a(2) = (   0.000000   0.986199   0.000000 )  
               a(3) = (   0.000000   0.000000   0.306159 )  

     reciprocal axes: (cart. coord. in units 2 pi/alat)
               b(1) = (  1.000000  0.000000  0.000000 )  
               b(2) = (  0.000000  1.013995  0.000000 )  
               b(3) = (  0.000000  0.000000  3.266276 )  


     PseudoPot. # 1 for C  read from file:
     ../../pseudo/C.pz-vbc.UPF
     MD5 check sum: 902016046bf83189dffe9ec1c2a452ce
     Pseudo is Norm-conserving, Zval =  4.0
     Generated by new atomic code, or converted to UPF format
     Using radial grid of  269 points,  1 beta functions with: 
                l(1) =   0

     atomic species   valence    mass     pseudopotential
        C              4.00    12.00000     C ( 1.00)

     No symmetry found



   Cartesian axes

     site n.     atom                  positions (alat units)
         1           C   tau(   1) = (   0.1137970   0.0826783   0.0000000  )
         2           C   tau(   2) = (   0.0434666   0.1337764   0.1530783  )
         3           C   tau(   3) = (  -0.0434666   0.1337764   0.0000000  )
         4           C   tau(   4) = (  -0.1137970   0.0826783   0.1530783  )
         5           C   tau(   5) = (  -0.1406608   0.0000000   0.0000000  )
         6           C   tau(   6) = (  -0.1137970  -0.0826783   0.1530783  )
         7           C   tau(   7) = (  -0.0434666  -0.1337764   0.0000000  )
         8           C   tau(   8) = (   0.0434666  -0.1337764   0.1530783  )
         9           C   tau(   9) = (   0.1137970  -0.0826783   0.0000000  )
        10           C   tau(  10) = (   0.1406608  -0.0000000   0.1530783  )
        11           C   tau(  11) = (   0.1137970  -0.0826783   0.1020522  )
        12           C   tau(  12) = (   0.1406608   0.0000000   0.2551305  )
        13           C   tau(  13) = (   0.1137970   0.0826783   0.1020522  )
        14           C   tau(  14) = (   0.0434666   0.1337764   0.2551305  )
        15           C   tau(  15) = (  -0.0434666   0.1337764   0.1020522  )
        16           C   tau(  16) = (  -0.1137970   0.0826783   0.2551305  )
        17           C   tau(  17) = (  -0.1406608   0.0000000   0.1020522  )
        18           C   tau(  18) = (  -0.1137970  -0.0826783   0.2551305  )
        19           C   tau(  19) = (  -0.0434666  -0.1337764   0.1020522  )
        20           C   tau(  20) = (   0.0434666  -0.1337764   0.2551305  )

     number of k points=    10  Gaussian smearing, width (Ry)=  0.0200
                       cart. coord. in units 2pi/alat
        k(    1) = (   0.0000000   0.0000000   0.0000000), wk =   0.2000000
        k(    2) = (   0.0000000   0.0000000   0.3266276), wk =   0.2000000
        k(    3) = (   0.0000000   0.0000000   0.6532552), wk =   0.2000000
        k(    4) = (   0.0000000   0.0000000   0.9798827), wk =   0.2000000
        k(    5) = (   0.0000000   0.0000000   1.3065103), wk =   0.2000000
        k(    6) = (   0.0000000   0.0000000   1.6331379), wk =   0.2000000
        k(    7) = (   0.0000000   0.0000000   1.9597655), wk =   0.2000000
        k(    8) = (   0.0000000   0.0000000   2.2863931), wk =   0.2000000
        k(    9) = (   0.0000000   0.0000000   2.6130206), wk =   0.2000000
        k(   10) = (   0.0000000   0.0000000   2.9396482), wk =   0.2000000

     Dense  grid:   344461 G-vectors     FFT dimensions: ( 135, 128,  40)

     Estimated max dynamical RAM per process >      35.62 MB

     Estimated total dynamical RAM >     854.87 MB

     Initial potential from superposition of free atoms

     starting charge   79.99943, renormalised to   80.00000

     negative rho (up, down):  1.481E-02 0.000E+00
     Starting wfcs are   80 randomized atomic wfcs

     total cpu time spent up to now is        1.2 secs

     Self-consistent Calculation

     iteration #  1     ecut=    60.00 Ry     beta= 0.20
     Davidson diagonalization with overlap
     ethr =  1.00E-02,  avg # of iterations =  2.0

     negative rho (up, down):  1.172E-02 0.000E+00

     total cpu time spent up to now is        3.2 secs

     total energy              =    -227.42145429 Ry
     Harris-Foulkes estimate   =    -228.07672758 Ry
     estimated scf accuracy    <       2.50684428 Ry

     iteration #  2     ecut=    60.00 Ry     beta= 0.20
     Davidson diagonalization with overlap
     ethr =  3.13E-03,  avg # of iterations =  1.0

     negative rho (up, down):  4.816E-03 0.000E+00

     total cpu time spent up to now is        4.5 secs

     total energy              =    -226.83979490 Ry
     Harris-Foulkes estimate   =    -227.49546779 Ry
     estimated scf accuracy    <       1.15690576 Ry

     iteration #  3     ecut=    60.00 Ry     beta= 0.20
     Davidson diagonalization with overlap
     ethr =  1.45E-03,  avg # of iterations =  2.0

     negative rho (up, down):  1.412E-03 0.000E+00

     total cpu time spent up to now is        6.2 secs

     total energy              =    -226.95451799 Ry
     Harris-Foulkes estimate   =    -227.03147339 Ry
     estimated scf accuracy    <       0.11618242 Ry

     iteration #  4     ecut=    60.00 Ry     beta= 0.20
     Davidson diagonalization with overlap
     ethr =  1.45E-04,  avg # of iterations =  4.0

     negative rho (up, down):  1.560E-03 0.000E+00

     total cpu time spent up to now is        8.4 secs

     total energy              =    -226.93128943 Ry
     Harris-Foulkes estimate   =    -227.07821325 Ry
     estimated scf accuracy    <       0.26224818 Ry

     iteration #  5     ecut=    60.00 Ry     beta= 0.20
     Davidson diagonalization with overlap
     ethr =  1.45E-04,  avg # of iterations =  5.2

     negative rho (up, down):  1.285E-04 0.000E+00

     total cpu time spent up to now is       10.6 secs

     total energy              =    -226.99607466 Ry
     Harris-Foulkes estimate   =    -226.99955262 Ry
     estimated scf accuracy    <       0.00909008 Ry

     iteration #  6     ecut=    60.00 Ry     beta= 0.20
     Davidson diagonalization with overlap
     ethr =  1.14E-05,  avg # of iterations =  5.2

     negative rho (up, down):  3.989E-05 0.000E+00

     total cpu time spent up to now is       12.6 secs

     total energy              =    -226.99737833 Ry
     Harris-Foulkes estimate   =    -226.99741053 Ry
     estimated scf accuracy    <       0.00009337 Ry

     iteration #  7     ecut=    60.00 Ry     beta= 0.20
     Davidson diagonalization with overlap
     ethr =  1.17E-07,  avg # of iterations =  3.0

     negative rho (up, down):  4.221E-06 0.000E+00

     total cpu time spent up to now is       14.5 secs

     total energy              =    -226.99741274 Ry
     Harris-Foulkes estimate   =    -226.99741040 Ry
     estimated scf accuracy    <       0.00000990 Ry

     iteration #  8     ecut=    60.00 Ry     beta= 0.20
     Davidson diagonalization with overlap
     ethr =  1.24E-08,  avg # of iterations =  2.4

     total cpu time spent up to now is       16.3 secs

     total energy              =    -226.99741151 Ry
     Harris-Foulkes estimate   =    -226.99741586 Ry
     estimated scf accuracy    <       0.00001091 Ry

     iteration #  9     ecut=    60.00 Ry     beta= 0.20
     Davidson diagonalization with overlap
     ethr =  1.24E-08,  avg # of iterations =  2.0

     total cpu time spent up to now is       17.9 secs

     total energy              =    -226.99741296 Ry
     Harris-Foulkes estimate   =    -226.99741304 Ry
     estimated scf accuracy    <       0.00000034 Ry

     iteration # 10     ecut=    60.00 Ry     beta= 0.20
     Davidson diagonalization with overlap
     ethr =  4.21E-10,  avg # of iterations =  2.8

     total cpu time spent up to now is       19.6 secs

     total energy              =    -226.99741297 Ry
     Harris-Foulkes estimate   =    -226.99741300 Ry
     estimated scf accuracy    <       0.00000009 Ry

     iteration # 11     ecut=    60.00 Ry     beta= 0.20
     Davidson diagonalization with overlap
     ethr =  1.15E-10,  avg # of iterations =  2.3

     total cpu time spent up to now is       21.3 secs

     total energy              =    -226.99741299 Ry
     Harris-Foulkes estimate   =    -226.99741299 Ry
     estimated scf accuracy    <          2.1E-09 Ry

     iteration # 12     ecut=    60.00 Ry     beta= 0.20
     Davidson diagonalization with overlap
     ethr =  2.64E-12,  avg # of iterations =  3.0

     total cpu time spent up to now is       23.3 secs

     End of self-consistent calculation

          k = 0.0000 0.0000 0.0000 ( 43017 PWs)   bands (ev):

   -22.6930 -21.5147 -21.5146 -18.8145 -18.8145 -17.6415 -16.5867 -16.5867
   -16.1366 -15.4107 -15.4106 -15.2588 -15.2585 -14.1429 -14.1427 -12.6738
   -12.6738 -11.2655 -11.2653 -11.0293 -10.9769 -10.9769 -10.0019 -10.0019
    -9.6534  -9.6531  -8.9184  -7.4983  -7.4983  -6.4214  -6.4209  -5.6175
    -5.6173  -5.5503  -5.3230  -5.2436  -3.8117  -3.8111  -3.4791  -2.3661
    -2.3659  -1.8825  -1.8819  -0.6634  -0.6631   1.5491   2.3980   2.5592

          k = 0.0000 0.0000 0.3266 ( 43054 PWs)   bands (ev):

   -22.6338 -21.4570 -21.4570 -18.7589 -18.7589 -18.1805 -17.1245 -17.1243
   -15.5139 -15.3981 -15.3980 -14.6547 -14.6546 -14.5372 -14.5371 -12.1958
   -12.1958 -11.3868 -11.3867 -11.1976 -11.1975 -10.9723  -9.6447  -9.6446
    -9.6350  -9.6349  -8.8572  -7.6711  -7.6708  -6.4491  -6.4487  -5.7929
    -5.7059  -5.5590  -5.5588  -5.4639  -4.2232  -4.2230  -3.0256  -2.4995
    -2.4992  -1.4707  -1.4706  -0.5929  -0.5925   1.6292   2.5849   2.6202

          k = 0.0000 0.0000 0.6533 ( 43076 PWs)   bands (ev):

   -22.4566 -21.2844 -21.2843 -19.0378 -18.5927 -18.5926 -17.9603 -17.9601
   -15.5987 -15.5985 -14.9192 -14.9192 -14.4088 -13.6323 -13.6321 -12.0685
   -12.0685 -11.3356 -11.3352 -10.9886 -10.9885 -10.8097  -9.6245  -9.6244
    -9.1409  -9.1408  -8.6755  -8.0260  -8.0259  -6.6398  -6.6395  -6.5360
    -6.4521  -5.8424  -5.3893  -5.3889  -5.0004  -5.0002  -2.8538  -2.8537
    -2.2170  -0.6878  -0.6868  -0.3903  -0.3900   1.8676   2.1442   2.5376

          k = 0.0000 0.0000 0.9799 ( 43122 PWs)   bands (ev):

   -22.1623 -20.9976 -20.9975 -19.8605 -18.7591 -18.7589 -18.3171 -18.3170
   -16.2251 -16.2251 -14.7623 -14.7622 -13.1949 -12.7546 -12.7544 -12.5673
   -12.5671 -10.6209 -10.6207 -10.5832 -10.4450 -10.4448  -9.7705  -9.7704
    -8.8087  -8.8087  -8.3787  -8.3183  -8.3183  -7.3654  -7.3632  -7.0372
    -7.0369  -6.3634  -5.8015  -5.8013  -5.1225  -5.1224  -3.3340  -3.3334
    -1.3959  -0.0704  -0.0702   0.1473   0.1483   1.5345   2.0275   2.0320

          k = 0.0000 0.0000 1.3065 ( 43118 PWs)   bands (ev):

   -21.7523 -20.5982 -20.5981 -20.5960 -19.4735 -19.4734 -17.9351 -17.9351
   -16.8744 -16.8743 -14.4112 -14.4111 -13.3891 -13.3890 -11.9747 -11.5900
   -11.5897 -10.4618 -10.1833 -10.1831 -10.0597 -10.0595  -9.6498  -9.6495
    -8.7662  -8.7658  -8.6454  -8.6454  -8.2335  -8.0727  -7.9765  -7.3129
    -7.3128  -6.9335  -6.5200  -6.5196  -4.7718  -4.7716  -3.8518  -3.8512
    -0.6154   0.3547   0.3548   0.8507   0.9714   0.9721   1.4409   1.4414

          k = 0.0000 0.0000 1.6331 ( 43144 PWs)   bands (ev):

   -21.2291 -21.2289 -20.0888 -20.0888 -20.0887 -20.0887 -17.4515 -17.4513
   -17.4513 -17.4512 -13.9470 -13.9469 -13.9468 -13.9467 -10.9221 -10.9220
   -10.7961 -10.7960 -10.7959 -10.7959  -9.3224  -9.3222  -9.3221  -9.3219
    -9.0586  -9.0586  -9.0583  -9.0582  -8.4934  -8.4934  -7.4858  -7.4854
    -7.0773  -7.0772  -7.0772  -7.0771  -4.3434  -4.3433  -4.3432  -4.3431
     0.1301   0.1302   0.8676   0.8676   0.8677   0.8678   1.7772   1.7774

          k = 0.0000 0.0000 1.9598 ( 43118 PWs)   bands (ev):

   -21.7523 -20.5982 -20.5981 -20.5960 -19.4735 -19.4734 -17.9351 -17.9351
   -16.8744 -16.8743 -14.4112 -14.4111 -13.3891 -13.3890 -11.9747 -11.5900
   -11.5897 -10.4618 -10.1833 -10.1831 -10.0597 -10.0595  -9.6498  -9.6495
    -8.7662  -8.7658  -8.6454  -8.6454  -8.2335  -8.0727  -7.9765  -7.3129
    -7.3128  -6.9335  -6.5200  -6.5196  -4.7718  -4.7716  -3.8518  -3.8512
    -0.6154   0.3547   0.3548   0.8507   0.9714   0.9721   1.4409   1.4414

          k = 0.0000 0.0000 2.2864 ( 43122 PWs)   bands (ev):

   -22.1623 -20.9976 -20.9975 -19.8605 -18.7591 -18.7589 -18.3171 -18.3170
   -16.2251 -16.2251 -14.7623 -14.7622 -13.1949 -12.7546 -12.7544 -12.5673
   -12.5671 -10.6209 -10.6207 -10.5832 -10.4450 -10.4448  -9.7705  -9.7704
    -8.8087  -8.8087  -8.3787  -8.3183  -8.3183  -7.3654  -7.3632  -7.0372
    -7.0369  -6.3634  -5.8015  -5.8013  -5.1225  -5.1224  -3.3340  -3.3334
    -1.3959  -0.0704  -0.0702   0.1473   0.1483   1.5345   2.0275   2.0320

          k = 0.0000 0.0000 2.6130 ( 43076 PWs)   bands (ev):

   -22.4566 -21.2844 -21.2843 -19.0378 -18.5927 -18.5926 -17.9603 -17.9601
   -15.5987 -15.5985 -14.9192 -14.9192 -14.4088 -13.6323 -13.6321 -12.0685
   -12.0685 -11.3356 -11.3352 -10.9886 -10.9885 -10.8097  -9.6245  -9.6244
    -9.1409  -9.1408  -8.6755  -8.0260  -8.0259  -6.6398  -6.6395  -6.5360
    -6.4521  -5.8424  -5.3893  -5.3889  -5.0004  -5.0002  -2.8538  -2.8537
    -2.2170  -0.6878  -0.6868  -0.3903  -0.3900   1.8676   2.1442   2.5376

          k = 0.0000 0.0000 2.9396 ( 43054 PWs)   bands (ev):

   -22.6338 -21.4570 -21.4570 -18.7589 -18.7589 -18.1805 -17.1245 -17.1243
   -15.5139 -15.3981 -15.3980 -14.6547 -14.6546 -14.5372 -14.5371 -12.1958
   -12.1958 -11.3868 -11.3867 -11.1976 -11.1975 -10.9723  -9.6447  -9.6446
    -9.6350  -9.6349  -8.8572  -7.6711  -7.6708  -6.4491  -6.4487  -5.7929
    -5.7059  -5.5590  -5.5588  -5.4639  -4.2232  -4.2230  -3.0256  -2.4995
    -2.4992  -1.4707  -1.4706  -0.5929  -0.5925   1.6292   2.5849   2.6203

     the Fermi energy is    -2.4650 ev

!    total energy              =    -226.99741299 Ry
     Harris-Foulkes estimate   =    -226.99741299 Ry
     estimated scf accuracy    <          5.9E-10 Ry

     The total energy is the sum of the following terms:

     one-electron contribution =   -1793.13254604 Ry
     hartree contribution      =     908.23519112 Ry
     xc contribution           =     -69.71043008 Ry
     ewald contribution        =     727.61841634 Ry
     smearing contrib. (-TS)   =      -0.00804433 Ry

     convergence has been achieved in  12 iterations

     Writing output data file ./cnt.save/

     init_run     :      1.14s CPU      1.19s WALL (       1 calls)
     electrons    :     21.77s CPU     22.15s WALL (       1 calls)

     Called by init_run:
     wfcinit      :      0.95s CPU      0.98s WALL (       1 calls)
     potinit      :      0.05s CPU      0.05s WALL (       1 calls)
     hinit0       :      0.06s CPU      0.07s WALL (       1 calls)

     Called by electrons:
     c_bands      :     18.69s CPU     18.95s WALL (      12 calls)
     sum_band     :      2.94s CPU      2.99s WALL (      12 calls)
     v_of_rho     :      0.06s CPU      0.06s WALL (      13 calls)
     mix_rho      :      0.06s CPU      0.06s WALL (      12 calls)

     Called by c_bands:
     init_us_2    :      0.08s CPU      0.08s WALL (     250 calls)
     cegterg      :     18.45s CPU     18.69s WALL (     120 calls)

     Called by sum_band:

     Called by *egterg:
     h_psi        :     14.86s CPU     15.09s WALL (     479 calls)
     g_psi        :      0.10s CPU      0.10s WALL (     349 calls)
     cdiaghg      :      1.78s CPU      1.79s WALL (     469 calls)

     Called by h_psi:
     h_psi:calbec :      0.23s CPU      0.23s WALL (     479 calls)
     vloc_psi     :     14.26s CPU     14.46s WALL (     479 calls)
     add_vuspsi   :      0.24s CPU      0.25s WALL (     479 calls)

     General routines
     calbec       :      0.23s CPU      0.23s WALL (     479 calls)
     fft          :      0.04s CPU      0.04s WALL (      38 calls)
     ffts         :      0.01s CPU      0.01s WALL (      12 calls)
     fftw         :     15.10s CPU     15.32s WALL (   38006 calls)

     Parallel routines
     fft_scatt_xy :      2.70s CPU      2.74s WALL (   38056 calls)
     fft_scatt_yz :      5.81s CPU      5.90s WALL (   38056 calls)

     PWSCF        :     23.12s CPU     24.72s WALL


   This run was terminated on:  15:34:58  24Nov2020            

=------------------------------------------------------------------------------=
   JOB DONE.
=------------------------------------------------------------------------------=
