
             +---------------------------------------------------+
             |                                                   |
             |                   WANNIER90                       |
             |                                                   |
             +---------------------------------------------------+
             |                                                   |
             |        Welcome to the Maximally-Localized         |
             |        Generalized Wannier Functions code         |
             |            http://www.wannier.org                 |
             |                                                   |
             |  Wannier90 v2.0 Authors:                          |
             |    Arash A. Mostofi  (Imperial College London)    |
             |    Giovanni Pizzi    (EPFL)                       |
             |    Ivo Souza         (Universidad del Pais Vasco) |
             |    Jonathan R. Yates (University of Oxford)       |
             |                                                   |
             |  Wannier90 Contributors:                          |
             |    Young-Su Lee       (KIST, S. Korea)            |
             |    Matthew Shelley    (Imperial College London)   |
             |    Nicolas Poilvert   (Penn State University)     |
             |    Raffaello Bianco   (Paris 6 and CNRS)          |
             |    Gabriele Sclauzero (ETH Zurich)                |
             |                                                   |
             |  Wannier77 Authors:                               |
             |    Nicola Marzari    (EPFL)                       |
             |    Ivo Souza         (Universidad del Pais Vasco) |
             |    David Vanderbilt  (Rutgers University)         |
             |                                                   |
             |  Please cite                                      |
             |                                                   |
             |  [ref] "Wannier90: A Tool for Obtaining Maximally |
             |         Localised Wannier Functions"              |
             |        A. A. Mostofi, J. R. Yates, Y.-S. Lee,     |
             |        I. Souza, D. Vanderbilt and N. Marzari     |
             |        Comput. Phys. Commun. 178, 685 (2008)      |
             |                                                   |
             |  in any publications arising from the use of      |
             |  this code. For the method please cite            |
             |                                                   |
             |  [ref] "Maximally Localized Generalised Wannier   |
             |         Functions for Composite Energy Bands"     |
             |         N. Marzari and D. Vanderbilt              |
             |         Phys. Rev. B 56 12847 (1997)              |
             |                                                   |
             |  [ref] "Maximally Localized Wannier Functions     |
             |         for Entangled Energy Bands"               |
             |         I. Souza, N. Marzari and D. Vanderbilt    |
             |         Phys. Rev. B 65 035109 (2001)             |
             |                                                   |
             |                                                   |
             | Copyright (c) 1996-2015                           |
             |        Arash A. Mostofi, Jonathan R. Yates,       |
             |        Young-Su Lee, Giovanni Pizzi, Ivo Souza,   |
             |        David Vanderbilt and Nicola Marzari        |
             |                                                   |
             |        Release: 2.0.1   2nd April 2015            |
             |                                                   |
             | This program is free software; you can            |
             | redistribute it and/or modify it under the terms  |
             | of the GNU General Public License as published by |
             | the Free Software Foundation; either version 2 of |
             | the License, or (at your option) any later version|
             |                                                   |
             | This program is distributed in the hope that it   |
             | will be useful, but WITHOUT ANY WARRANTY; without |
             | even the implied warranty of MERCHANTABILITY or   |
             | FITNESS FOR A PARTICULAR PURPOSE. See the GNU     |
             | General Public License for more details.          |
             |                                                   |
             | You should have received a copy of the GNU General|
             | Public License along with this program; if not,   |
             | write to the Free Software Foundation, Inc.,      |
             | 675 Mass Ave, Cambridge, MA 02139, USA.           |
             |                                                   |
             +---------------------------------------------------+
             |    Execution started on 14Sep2016 at 18:31:13     |
             +---------------------------------------------------+
 
 ******************************************************************************
 * -> Using CODATA 2006 constant values                                       *
 *    (http://physics.nist.gov/cuu/Constants/index.html)                      *
 * -> Using Bohr value from CODATA                                            *
 ******************************************************************************
 

                                    ------
                                    SYSTEM
                                    ------

                              Lattice Vectors (Ang)
                    a_1    15.875316   0.000000   0.000000
                    a_2     0.000000  15.875316   0.000000
                    a_3     0.000000   0.000000  15.875316

                   Unit Cell Volume:    4000.98716  (Ang^3)

                        Reciprocal-Space Vectors (Ang^-1)
                    b_1     0.395783   0.000000   0.000000
                    b_2     0.000000   0.395783   0.000000
                    b_3     0.000000   0.000000   0.395783
  
 *----------------------------------------------------------------------------*
 |   Site       Fractional Coordinate          Cartesian Coordinate (Ang)     |
 +----------------------------------------------------------------------------+
 | C    1   0.52095   0.50000   0.50000   |    8.27021   7.93766   7.93766    |
 | C    2   0.47698   0.57616   0.50000   |    7.57221   9.14666   7.93766    |
 | C    3   0.38905   0.57616   0.50000   |    6.17621   9.14666   7.93766    |
 | C    4   0.34508   0.50000   0.50000   |    5.47821   7.93766   7.93766    |
 | C    5   0.38905   0.42384   0.50000   |    6.17621   6.72866   7.93766    |
 | C    6   0.47698   0.42384   0.50000   |    7.57221   6.72866   7.93766    |
 | H    1   0.58917   0.50000   0.50000   |    9.35321   7.93766   7.93766    |
 | H    2   0.51112   0.63524   0.50000   |    8.11421  10.08466   7.93766    |
 | H    3   0.35490   0.63524   0.50000   |    5.63421  10.08466   7.93766    |
 | H    4   0.27686   0.50000   0.50000   |    4.39521   7.93766   7.93766    |
 | H    5   0.35490   0.36476   0.50000   |    5.63421   5.79066   7.93766    |
 | H    6   0.51112   0.36476   0.50000   |    8.11421   5.79066   7.93766    |
 *----------------------------------------------------------------------------*
  
                                -----------
                                PROJECTIONS
                                -----------
  
 +----------------------------------------------------------------------------+
 |     Frac. Coord.   l mr  r        z-axis               x-axis          Z/a |
 +----------------------------------------------------------------------------+
 |  1.00  0.57  0.97  0  1  1  0.000  0.000  1.000  1.000  0.000  0.000   1.0 |
 |  0.75  0.37  0.48  0  1  1  0.000  0.000  1.000  1.000  0.000  0.000   1.0 |
 |  0.07  0.01  0.35  0  1  1  0.000  0.000  1.000  1.000  0.000  0.000   1.0 |
 |  0.34  0.22  0.13  0  1  1  0.000  0.000  1.000  1.000  0.000  0.000   1.0 |
 |  0.90  0.39  0.45  0  1  1  0.000  0.000  1.000  1.000  0.000  0.000   1.0 |
 |  0.66  0.02  0.65  0  1  1  0.000  0.000  1.000  1.000  0.000  0.000   1.0 |
 |  0.65  0.32  0.86  0  1  1  0.000  0.000  1.000  1.000  0.000  0.000   1.0 |
 |  0.40  0.21  0.97  0  1  1  0.000  0.000  1.000  1.000  0.000  0.000   1.0 |
 |  0.60  0.67  0.46  0  1  1  0.000  0.000  1.000  1.000  0.000  0.000   1.0 |
 |  0.33  0.10  0.76  0  1  1  0.000  0.000  1.000  1.000  0.000  0.000   1.0 |
 |  0.61  0.72  0.90  0  1  1  0.000  0.000  1.000  1.000  0.000  0.000   1.0 |
 |  0.66  0.15  0.61  0  1  1  0.000  0.000  1.000  1.000  0.000  0.000   1.0 |
 |  0.98  1.00  0.26  0  1  1  0.000  0.000  1.000  1.000  0.000  0.000   1.0 |
 |  0.55  0.66  0.55  0  1  1  0.000  0.000  1.000  1.000  0.000  0.000   1.0 |
 |  0.98  0.90  0.66  0  1  1  0.000  0.000  1.000  1.000  0.000  0.000   1.0 |
 +----------------------------------------------------------------------------+
  
                                ------------
                                K-POINT GRID
                                ------------
  
             Grid size =  1 x  1 x  1      Total points =    1
  
 *----------------------------------------------------------------------------*
 | k-point      Fractional Coordinate        Cartesian Coordinate (Ang^-1)    |
 +----------------------------------------------------------------------------+
 |     1    0.00000   0.00000   0.00000   |    0.00000   0.00000   0.00000    |
 *----------------------------------------------------------------------------*
  
  
 *---------------------------------- MAIN ------------------------------------*
 |  Number of Wannier Functions               :                15             |
 |  Number of input Bloch states              :                15             |
 |  Output verbosity (1=low, 5=high)          :                 2             |
 |  Timing Level (1=low, 5=high)              :                 1             |
 |  Optimisation (0=memory, 3=speed)          :                 3             |
 |  Length Unit                               :               Ang             |
 |  Post-processing setup (write *.nnkp)      :                 F             |
 |  Using Gamma-only branch of algorithms     :                 T             |
 *----------------------------------------------------------------------------*
 *------------------------------- WANNIERISE ---------------------------------*
 |  Total number of iterations                :               100             |
 |  Number of CG steps before reset           :                 5             |
 |  Trial step length for line search         :             2.000             |
 |  Convergence tolerence                     :         0.100E-09             |
 |  Convergence window                        :                 5             |
 |  Iterations between writing output         :                 1             |
 |  Iterations between backing up to disk     :               100             |
 |  Write r^2_nm to file                      :                 F             |
 |  Write xyz WF centres to file              :                 F             |
 |  Write on-site energies <0n|H|0n> to file  :                 F             |
 |  Use guiding centre to control phases      :                 T             |
 |  Use phases for initial projections        :                 F             |
 |  Iterations before starting guiding centres:                 0             |
 |  Iterations between using guiding centres  :                 1             |
 *----------------------------------------------------------------------------*
 Time to read parameters        0.002 (sec)

 *---------------------------------- K-MESH ----------------------------------*
 +----------------------------------------------------------------------------+
 |                    Distance to Nearest-Neighbour Shells                    |
 |                    ------------------------------------                    |
 |          Shell             Distance (Ang^-1)          Multiplicity         |
 |          -----             -----------------          ------------         |
 |             1                   0.395783                      6            |
 |             2                   0.559722                     12            |
 |             3                   0.685517                      8            |
 |             4                   0.791567                      6            |
 |             5                   0.884998                     24            |
 |             6                   0.969467                     24            |
 |             7                   1.119444                     12            |
 |             8                   1.187350                     30            |
 |             9                   1.251577                     24            |
 |            10                   1.312665                     24            |
 |            11                   1.371034                      8            |
 |            12                   1.427017                     24            |
 +----------------------------------------------------------------------------+
 | The b-vectors are chosen automatically                                     |
 | Shell:  1 w_b    3.1919424      (Ang^2)                                    |
 | The following shells are used:   1                                         |
 +----------------------------------------------------------------------------+
 |                        Shell   # Nearest-Neighbours                        |
 |                        -----   --------------------                        |
 |                          1               6                                 |
 +----------------------------------------------------------------------------+
 | Completeness relation is fully satisfied [Eq. (B1), PRB 56, 12847 (1997)]  |
 +----------------------------------------------------------------------------+
 |                  b_k Vectors (Ang^-1) and Weights (Ang^2)                  |
 |                  ----------------------------------------                  |
 |            No.         b_k(x)      b_k(y)      b_k(z)        w_b           |
 |            ---        --------------------------------     --------        |
 |             1         0.395783    0.000000    0.000000     3.191942        |
 |             2         0.000000    0.395783    0.000000     3.191942        |
 |             3         0.000000    0.000000    0.395783     3.191942        |
 |             4         0.000000    0.000000   -0.395783     3.191942        |
 |             5         0.000000   -0.395783    0.000000     3.191942        |
 |             6        -0.395783    0.000000    0.000000     3.191942        |
 +----------------------------------------------------------------------------+
 |                           b_k Directions (Ang^-1)                          |
 |                           -----------------------                          |
 |            No.           x           y           z                         |
 |            ---        --------------------------------                     |
 |             1         0.395783    0.000000    0.000000                     |
 |             2         0.000000    0.395783    0.000000                     |
 |             3         0.000000    0.000000    0.395783                     |
 +----------------------------------------------------------------------------+
  
 +----------------------------------------------------------------------------+
 |        Gamma-point: number of the b-vectors is reduced by half             |
 +----------------------------------------------------------------------------+
 |                  b_k Vectors (Ang^-1) and Weights (Ang^2)                  |
 |                  ----------------------------------------                  |
 |            No.         b_k(x)      b_k(y)      b_k(z)        w_b           |
 |            ---        --------------------------------     --------        |
 |             1         0.395783    0.000000    0.000000     6.383885        |
 |             2         0.000000    0.395783    0.000000     6.383885        |
 |             3         0.000000    0.000000    0.395783     6.383885        |
 +----------------------------------------------------------------------------+
  
 *============================================================================*
 |                              MEMORY ESTIMATE                               |
 |         Maximum RAM allocated during each phase of the calculation         |
 *============================================================================*
 |                            Wannierise:            0.08 Mb                  |
 |                                                                            |
 |   N.B. by setting optimisation=0 memory usage will be reduced to:          |
 |                            Wannierise:            0.08 Mb                  |
 |   However, this will result in more i/o and slow down the calculation      |
 |                          plot_wannier:            0.08 Mb                  |
 *----------------------------------------------------------------------------*
  
 Starting a new Wannier90 calculation ...

 Time to get kmesh              0.005 (sec)

 Reading overlaps from benzene.mmn    :  Created on 14Sep2016 at 16:33:16

 Reading projections from benzene.amn :  Created on 14Sep2016 at 16:32:57

 Time to read overlaps          0.002 (sec)

 Writing checkpoint file benzene.chk... done


 *------------------------------- WANNIERISE ---------------------------------*
 +--------------------------------------------------------------------+<-- CONV
 | Iter  Delta Spread     RMS Gradient      Spread (Ang^2)      Time  |<-- CONV
 +--------------------------------------------------------------------+<-- CONV

 ------------------------------------------------------------------------------
 Initial State
  WF centre and spread    1  (  5.503647,  7.895643, -7.936627 )     1.93658768
  WF centre and spread    2  ( -7.182905,  7.746974,  7.933066 )     1.55203655
  WF centre and spread    3  (  5.955711, -6.647464,  7.895418 )     1.51576156
  WF centre and spread    4  (  6.136356,  7.044429,  7.865280 )     2.00458118
  WF centre and spread    5  (  7.016607,  7.658442,  7.935242 )     2.70716918
  WF centre and spread    6  (  6.580950,  7.362727,  7.923972 )     1.98099759
  WF centre and spread    7  (  7.032212,  7.833834, -7.884500 )     2.89712710
  WF centre and spread    8  (  7.749624, -7.627512, -7.907087 )     1.73347394
  WF centre and spread    9  (  7.607747, -6.901011,  7.835279 )     1.98174161
  WF centre and spread   10  (  6.031001,  6.647395, -7.885476 )     1.71783196
  WF centre and spread   11  (  6.841313, -7.005690,  7.800656 )     1.42187476
  WF centre and spread   12  (  7.896752,  6.545882, -7.921961 )     1.70081059
  WF centre and spread   13  (  6.497867,  7.177334, -7.918524 )     1.43484191
  WF centre and spread   14  (  7.782084, -6.441421, -7.729572 )     1.35153876
  WF centre and spread   15  (  5.869972, -7.491281,  7.932713 )     1.77875176
  Sum of centres and spreads ( 87.318938, 23.798282,  7.937878 )    27.71512612

      0     0.277E+02                        27.7151261188       0.01  <-- CONV
        O_D=      0.0000000 O_OD=     17.2596535 O_TOT=     27.7151261 <-- SPRD
 ------------------------------------------------------------------------------
 Cycle:      1
  WF centre and spread    1  (  4.793088, -7.931757,  7.919602 )     0.76101667
  WF centre and spread    2  ( -6.890656,  7.916646, -7.936880 )     0.70153911
  WF centre and spread    3  (  5.785836, -6.209490, -7.928916 )     0.82172128
  WF centre and spread    4  (  5.889424,  7.913522, -7.914245 )     1.92037497
  WF centre and spread    5  (  7.899981,  7.398680,  7.909376 )     0.82003048
  WF centre and spread    6  (  6.903416,  6.653981, -7.895406 )     0.62968558
  WF centre and spread    7  (  7.325816,  7.133873, -7.925878 )     2.05235628
  WF centre and spread    8  (  7.888531, -7.372042,  7.880650 )     0.62548005
  WF centre and spread    9  (  7.416029, -7.129399, -7.848841 )     1.91869475
  WF centre and spread   10  (  5.818364,  6.180209, -7.922098 )     0.87569464
  WF centre and spread   11  (  6.840266, -6.701749,  7.878166 )     0.69022548
  WF centre and spread   12  (  7.933873,  6.134124,  7.932348 )     0.73895533
  WF centre and spread   13  (  5.819784,  7.351612, -7.902201 )     0.64443251
  WF centre and spread   14  (  7.936372, -6.094948, -7.937434 )     0.65270955
  WF centre and spread   15  (  5.878080, -7.325669,  7.883086 )     0.69761540
  Sum of centres and spreads ( 87.238204,  7.917594,-23.808669 )    14.55053210

      1    -0.132E+02                        14.5505321019       0.01  <-- CONV
        O_D=      0.0000000 O_OD=      4.0950594 O_TOT=     14.5505321 <-- SPRD
 Delta: O_D=  0.0000000E+00 O_OD= -0.1316459E+02 O_TOT= -0.1316459E+02 <-- DLTA
 ------------------------------------------------------------------------------
 Cycle:      2
  WF centre and spread    1  (  4.747094, -7.934042, -7.934409 )     0.64384843
  WF centre and spread    2  ( -6.871880, -7.935041,  7.936967 )     0.64364815
  WF centre and spread    3  (  5.805895, -6.099363, -7.935257 )     0.65382414
  WF centre and spread    4  (  5.909842, -7.848958, -7.776955 )     1.85212322
  WF centre and spread    5  (  7.918750,  7.333382, -7.907028 )     0.59453391
  WF centre and spread    6  (  6.878562,  6.722612, -7.902215 )     0.59721105
  WF centre and spread    7  (  7.293879,  7.068055,  7.874549 )     1.95062597
  WF centre and spread    8  (  7.914392, -7.330132,  7.867452 )     0.61803235
  WF centre and spread    9  (  7.412885, -7.142203, -7.803246 )     1.91533330
  WF centre and spread   10  (  5.809506,  6.095835, -7.936953 )     0.64842371
  WF centre and spread   11  (  6.876440, -6.719328,  7.874834 )     0.60493552
  WF centre and spread   12  ( -7.934349,  6.095646, -7.936937 )     0.64471494
  WF centre and spread   13  (  5.819910,  7.331592,  7.906737 )     0.59489242
  WF centre and spread   14  ( -7.937319, -6.094941,  7.936055 )     0.64796214
  WF centre and spread   15  (  5.832355, -7.356628,  7.806002 )     0.67291042
  Sum of centres and spreads ( 55.475962,-23.813515, -7.930404 )    13.28301966

      2    -0.127E+01                        13.2830196635       0.01  <-- CONV
        O_D=      0.0000000 O_OD=      2.8275470 O_TOT=     13.2830197 <-- SPRD
 Delta: O_D=  0.0000000E+00 O_OD= -0.1267512E+01 O_TOT= -0.1267512E+01 <-- DLTA
 ------------------------------------------------------------------------------
 Cycle:      3
  WF centre and spread    1  (  4.746675,  7.937524,  7.935797 )     0.64835585
  WF centre and spread    2  ( -6.873265, -7.937586,  7.936586 )     0.64752415
  WF centre and spread    3  (  5.810447, -6.095038,  7.936999 )     0.64774853
  WF centre and spread    4  (  5.906251, -7.805554, -7.721082 )     1.76757217
  WF centre and spread    5  (  7.923868,  7.330797, -7.922659 )     0.58797637
  WF centre and spread    6  (  6.876515,  6.726538, -7.901708 )     0.59502668
  WF centre and spread    7  (  7.264098,  7.056520,  7.892663 )     1.96060189
  WF centre and spread    8  (  7.890210, -7.318265,  7.796164 )     0.70239028
  WF centre and spread    9  (  7.464475, -7.173417, -7.723533 )     1.80703854
  WF centre and spread   10  (  5.810444,  6.094646,  7.937039 )     0.64636634
  WF centre and spread   11  (  6.880870, -6.722380,  7.872634 )     0.61862887
  WF centre and spread   12  ( -7.936964,  6.094645, -7.937102 )     0.64620684
  WF centre and spread   13  (  5.819170,  7.335803,  7.890673 )     0.60580556
  WF centre and spread   14  (  7.937541, -6.095106,  7.935567 )     0.64859009
  WF centre and spread   15  (  5.833269, -7.368462,  7.770701 )     0.72660838
  Sum of centres and spreads ( 71.353606, -7.939335, 39.698739 )    13.25644055

      3    -0.266E-01                        13.2564405524       0.01  <-- CONV
        O_D=      0.0000000 O_OD=      2.8009679 O_TOT=     13.2564406 <-- SPRD
 Delta: O_D=  0.0000000E+00 O_OD= -0.2657911E-01 O_TOT= -0.2657911E-01 <-- DLTA
 ------------------------------------------------------------------------------
 Cycle:      4
  WF centre and spread    1  (  4.747004,  7.937094,  7.935516 )     0.64955672
  WF centre and spread    2  ( -6.873572,  7.936801,  7.936189 )     0.64843585
  WF centre and spread    3  (  5.811239, -6.094994,  7.936313 )     0.64836541
  WF centre and spread    4  (  5.903043, -7.728170, -7.675617 )     1.63136230
  WF centre and spread    5  (  7.925871,  7.331120, -7.934540 )     0.58983168
  WF centre and spread    6  (  6.877174,  6.729515,  7.879805 )     0.60389594
  WF centre and spread    7  (  7.203962,  7.039641, -7.867526 )     1.96804485
  WF centre and spread    8  (  7.846008, -7.308769,  7.723869 )     0.87104928
  WF centre and spread    9  (  7.567804, -7.228992, -7.662640 )     1.60897220
  WF centre and spread   10  (  5.810500,  6.094748,  7.936095 )     0.64648273
  WF centre and spread   11  (  6.879229, -6.717883,  7.882307 )     0.61970882
  WF centre and spread   12  ( -7.937029,  6.094721,  7.936024 )     0.64632391
  WF centre and spread   13  (  5.816282,  7.335214,  7.888560 )     0.60988359
  WF centre and spread   14  (  7.936486, -6.095189,  7.936085 )     0.65019082
  WF centre and spread   15  (  5.843564, -7.391697,  7.726578 )     0.82968146
  Sum of centres and spreads ( 71.357564,  7.933159, 55.577017 )    13.22178554

      4    -0.347E-01                        13.2217855438       0.01  <-- CONV
        O_D=      0.0000000 O_OD=      2.7663129 O_TOT=     13.2217855 <-- SPRD
 Delta: O_D=  0.0000000E+00 O_OD= -0.3465501E-01 O_TOT= -0.3465501E-01 <-- DLTA
 ------------------------------------------------------------------------------
 Cycle:      5
  WF centre and spread    1  (  4.747444,  7.936720,  7.935766 )     0.65088441
  WF centre and spread    2  ( -6.874208,  7.935875,  7.935767 )     0.65025399
  WF centre and spread    3  (  5.811910, -6.095113,  7.936478 )     0.64924971
  WF centre and spread    4  (  5.899704, -7.610162, -7.641390 )     1.42503303
  WF centre and spread    5  (  7.929122,  7.330244,  7.907096 )     0.59821694
  WF centre and spread    6  (  6.937153,  6.801619,  7.699891 )     0.98278390
  WF centre and spread    7  (  7.035660,  6.940777, -7.657881 )     1.53155022
  WF centre and spread    8  (  7.812392, -7.318016,  7.681143 )     1.05027226
  WF centre and spread    9  (  7.691126, -7.298628, -7.638206 )     1.38225562
  WF centre and spread   10  (  5.809621,  6.096945,  7.936037 )     0.65039427
  WF centre and spread   11  (  6.875866, -6.714009,  7.900754 )     0.61682151
  WF centre and spread   12  ( -7.935994,  6.097208,  7.936188 )     0.65071771
  WF centre and spread   13  (  5.811037,  7.329891,  7.898194 )     0.61787891
  WF centre and spread   14  (  7.935545, -6.095191,  7.936943 )     0.65131494
  WF centre and spread   15  (  5.869870, -7.413396,  7.682637 )     0.99435804
  Sum of centres and spreads ( 71.356249,  7.924764, 71.449416 )    13.10198546

      5    -0.120E+00                        13.1019854647       0.01  <-- CONV
        O_D=      0.0000000 O_OD=      2.6465128 O_TOT=     13.1019855 <-- SPRD
 Delta: O_D=  0.0000000E+00 O_OD= -0.1198001E+00 O_TOT= -0.1198001E+00 <-- DLTA
 ------------------------------------------------------------------------------
 Cycle:      6
  WF centre and spread    1  (  4.747974,  7.936368,  7.936527 )     0.65202634
  WF centre and spread    2  ( -6.874862,  7.935361,  7.936486 )     0.65130702
  WF centre and spread    3  (  5.812668, -6.095221,  7.937246 )     0.65049453
  WF centre and spread    4  (  5.912455, -7.489938, -7.635421 )     1.27484095
  WF centre and spread    5  (  7.933583,  7.323331,  7.909742 )     0.61250591
  WF centre and spread    6  (  6.921573,  6.830079,  7.667092 )     1.12668222
  WF centre and spread    7  (  6.943465,  6.886326, -7.637244 )     1.31173176
  WF centre and spread    8  (  7.808069, -7.345959,  7.663445 )     1.13889975
  WF centre and spread    9  (  7.763681, -7.353180, -7.638124 )     1.27251042
  WF centre and spread   10  (  5.809385,  6.097547,  7.937219 )     0.65135867
  WF centre and spread   11  (  6.873965, -6.712297,  7.916055 )     0.61520916
  WF centre and spread   12  ( -7.936355,  6.097424,  7.937465 )     0.65168393
  WF centre and spread   13  (  5.809982,  7.326758,  7.914784 )     0.61529095
  WF centre and spread   14  (  7.935158, -6.095194,  7.937414 )     0.65167080
  WF centre and spread   15  (  5.898297, -7.417090,  7.660663 )     1.12402716
  Sum of centres and spreads ( 71.359037,  7.924315, 71.443347 )    13.00023955

      6    -0.102E+00                        13.0002395541       0.01  <-- CONV
        O_D=      0.0000000 O_OD=      2.5447669 O_TOT=     13.0002396 <-- SPRD
 Delta: O_D=  0.0000000E+00 O_OD= -0.1017459E+00 O_TOT= -0.1017459E+00 <-- DLTA
 ------------------------------------------------------------------------------
 Cycle:      7
  WF centre and spread    1  (  4.748234,  7.935919,  7.937155 )     0.65249521
  WF centre and spread    2  ( -6.875101,  7.935463,  7.937340 )     0.65210328
  WF centre and spread    3  (  5.813040, -6.095283, -7.937516 )     0.65123693
  WF centre and spread    4  (  5.920619, -7.439059, -7.640419 )     1.22713500
  WF centre and spread    5  (  7.935156,  7.323710,  7.921558 )     0.61068594
  WF centre and spread    6  (  6.902104,  6.840297,  7.657573 )     1.17169647
  WF centre and spread    7  (  6.905847,  6.865933, -7.641835 )     1.24963087
  WF centre and spread    8  (  7.811431, -7.368591,  7.655366 )     1.17142804
  WF centre and spread    9  (  7.792588, -7.377633, -7.642194 )     1.23494871
  WF centre and spread   10  (  5.809343,  6.097620,  7.937631 )     0.65161773
  WF centre and spread   11  (  6.873911, -6.712079,  7.926280 )     0.61329437
  WF centre and spread   12  ( -7.936274,  6.097582, -7.937642 )     0.65183479
  WF centre and spread   13  (  5.810944,  7.325238,  7.926135 )     0.61193319
  WF centre and spread   14  (  7.935075, -6.095190,  7.937578 )     0.65170808
  WF centre and spread   15  (  5.913967, -7.409470,  7.653324 )     1.16773231
  Sum of centres and spreads ( 71.360886,  7.924456, 39.690336 )    12.96948093

      7    -0.308E-01                        12.9694809270       0.01  <-- CONV
        O_D=      0.0000000 O_OD=      2.5140083 O_TOT=     12.9694809 <-- SPRD
 Delta: O_D=  0.0000000E+00 O_OD= -0.3075863E-01 O_TOT= -0.3075863E-01 <-- DLTA
 ------------------------------------------------------------------------------
 Cycle:      8
  WF centre and spread    1  (  4.748261,  7.935653,  7.937404 )     0.65247799
  WF centre and spread    2  ( -6.875125,  7.935450,  7.937601 )     0.65223285
  WF centre and spread    3  (  5.813203, -6.095246, -7.937491 )     0.65145663
  WF centre and spread    4  (  5.925964, -7.416818, -7.644055 )     1.21260124
  WF centre and spread    5  (  7.935687,  7.323919,  7.929290 )     0.61010682
  WF centre and spread    6  (  6.889084,  6.845160,  7.652934 )     1.18839293
  WF centre and spread    7  (  6.889200,  6.857680, -7.645147 )     1.22609054
  WF centre and spread    8  (  7.813954, -7.381995,  7.651604 )     1.18640081
  WF centre and spread    9  (  7.805167, -7.387959, -7.644926 )     1.21810985
  WF centre and spread   10  (  5.809326,  6.097658, -7.937628 )     0.65175444
  WF centre and spread   11  (  6.874055, -6.712254,  7.931937 )     0.61225615
  WF centre and spread   12  ( -7.936241,  6.097635, -7.937631 )     0.65185789
  WF centre and spread   13  (  5.811653,  7.324696,  7.932007 )     0.61070226
  WF centre and spread   14  (  7.935064, -6.095185,  7.937630 )     0.65167854
  WF centre and spread   15  (  5.922456, -7.403676,  7.650450 )     1.18501878
  Sum of centres and spreads ( 71.361709,  7.924719, 23.813981 )    12.96113772

      8    -0.834E-02                        12.9611377182       0.01  <-- CONV
        O_D=      0.0000000 O_OD=      2.5056651 O_TOT=     12.9611377 <-- SPRD
 Delta: O_D=  0.0000000E+00 O_OD= -0.8343209E-02 O_TOT= -0.8343209E-02 <-- DLTA
 ------------------------------------------------------------------------------
 Cycle:      9
  WF centre and spread    1  (  4.748258,  7.935545,  7.937524 )     0.65242120
  WF centre and spread    2  ( -6.875132,  7.935453,  7.937655 )     0.65228994
  WF centre and spread    3  (  5.813281, -6.095215, -7.937560 )     0.65153893
  WF centre and spread    4  (  5.928776, -7.406618, -7.645996 )     1.20678625
  WF centre and spread    5  (  7.935898,  7.324051,  7.933385 )     0.60996415
  WF centre and spread    6  (  6.881871,  6.847713,  7.650784 )     1.19644907
  WF centre and spread    7  (  6.881502,  6.853994, -7.646911 )     1.21546330
  WF centre and spread    8  (  7.815339, -7.389248,  7.649785 )     1.19384256
  WF centre and spread    9  (  7.811071, -7.392590, -7.646418 )     1.20976690
  WF centre and spread   10  (  5.809322,  6.097672, -7.937638 )     0.65181472
  WF centre and spread   11  (  6.874134, -6.712399,  7.934810 )     0.61177904
  WF centre and spread   12  ( -7.936228,  6.097657, -7.937641 )     0.65186396
  WF centre and spread   13  (  5.812006,  7.324455,  7.934872 )     0.61026039
  WF centre and spread   14  (  7.935065, -6.095182,  7.937646 )     0.65165026
  WF centre and spread   15  (  5.926930, -7.400417,  7.649182 )     1.19314795
  Sum of centres and spreads ( 71.362095,  7.924869, 23.813480 )    12.95903862

      9    -0.210E-02                        12.9590386245       0.01  <-- CONV
        O_D=      0.0000000 O_OD=      2.5035660 O_TOT=     12.9590386 <-- SPRD
 Delta: O_D=  0.0000000E+00 O_OD= -0.2099094E-02 O_TOT= -0.2099094E-02 <-- DLTA
 ------------------------------------------------------------------------------
 Cycle:     10
  WF centre and spread    1  (  4.748253,  7.935504,  7.937588 )     0.65238312
  WF centre and spread    2  ( -6.875134,  7.935459, -7.937653 )     0.65231604
  WF centre and spread    3  (  5.813318, -6.095200, -7.937609 )     0.65157593
  WF centre and spread    4  (  5.930191, -7.401734, -7.646987 )     1.20405154
  WF centre and spread    5  (  7.935993,  7.324129,  7.935487 )     0.60993538
  WF centre and spread    6  (  6.878105,  6.849060,  7.649758 )     1.20061998
  WF centre and spread    7  (  6.877815,  6.852230, -7.647817 )     1.21025946
  WF centre and spread    8  (  7.816049, -7.393022,  7.648892 )     1.19759177
  WF centre and spread    9  (  7.813938, -7.394784, -7.647196 )     1.20559125
  WF centre and spread   10  (  5.809322,  6.097677, -7.937648 )     0.65184005
  WF centre and spread   11  (  6.874172, -6.712483,  7.936240 )     0.61155769
  WF centre and spread   12  ( -7.936221,  6.097666, -7.937649 )     0.65186510
  WF centre and spread   13  (  5.812175,  7.324336,  7.936273 )     0.61008233
  WF centre and spread   14  (  7.935068, -6.095181,  7.937652 )     0.65163251
  WF centre and spread   15  (  5.929240, -7.398713,  7.648583 )     1.19721198
  Sum of centres and spreads ( 71.362284,  7.924945,  7.937913 )    12.95851413

     10    -0.524E-03                        12.9585141263       0.01  <-- CONV
        O_D=      0.0000000 O_OD=      2.5030415 O_TOT=     12.9585141 <-- SPRD
 Delta: O_D=  0.0000000E+00 O_OD= -0.5244982E-03 O_TOT= -0.5244982E-03 <-- DLTA
 ------------------------------------------------------------------------------
 Cycle:     11
  WF centre and spread    1  (  4.748250,  7.935487,  7.937622 )     0.65236250
  WF centre and spread    2  ( -6.875134,  7.935465, -7.937654 )     0.65232833
  WF centre and spread    3  (  5.813336, -6.095192, -7.937634 )     0.65159306
  WF centre and spread    4  (  5.930901, -7.399337, -7.647489 )     1.20270210
  WF centre and spread    5  (  7.936038,  7.324170,  7.936558 )     0.60993186
  WF centre and spread    6  (  6.876179,  6.849760,  7.649255 )     1.20277448
  WF centre and spread    7  (  6.876008,  6.851359, -7.648279 )     1.20765176
  WF centre and spread    8  (  7.816408, -7.394950,  7.648448 )     1.19948097
  WF centre and spread    9  (  7.815355, -7.395855, -7.647594 )     1.20349879
  WF centre and spread   10  (  5.809322,  6.097678, -7.937653 )     0.65185134
  WF centre and spread   11  (  6.874189, -6.712526,  7.936950 )     0.61145203
  WF centre and spread   12  ( -7.936218,  6.097671, -7.937653 )     0.65186512
  WF centre and spread   13  (  5.812258,  7.324277,  7.936965 )     0.61000327
  WF centre and spread   14  (  7.935070, -6.095180,  7.937655 )     0.65162272
  WF centre and spread   15  (  5.930417, -7.397843,  7.648290 )     1.19926409
  Sum of centres and spreads ( 71.362378,  7.924983,  7.937787 )    12.95838242

     11    -0.132E-03                        12.9583824153       0.01  <-- CONV
        O_D=      0.0000000 O_OD=      2.5029097 O_TOT=     12.9583824 <-- SPRD
 Delta: O_D=  0.0000000E+00 O_OD= -0.1317110E-03 O_TOT= -0.1317110E-03 <-- DLTA
 ------------------------------------------------------------------------------
 Cycle:     12
  WF centre and spread    1  (  4.748249,  7.935479,  7.937640 )     0.65235179
  WF centre and spread    2  ( -6.875134,  7.935468, -7.937656 )     0.65233427
  WF centre and spread    3  (  5.813344, -6.095188, -7.937646 )     0.65160112
  WF centre and spread    4  (  5.931257, -7.398146, -7.647743 )     1.20202806
  WF centre and spread    5  (  7.936060,  7.324192,  7.937102 )     0.60993294
  WF centre and spread    6  (  6.875204,  6.850118,  7.649005 )     1.20387621
  WF centre and spread    7  (  6.875111,  6.850924, -7.648514 )     1.20633863
  WF centre and spread    8  (  7.816588, -7.395926,  7.648226 )     1.20043153
  WF centre and spread    9  (  7.816061, -7.396386, -7.647797 )     1.20244937
  WF centre and spread   10  (  5.809322,  6.097679, -7.937656 )     0.65185665
  WF centre and spread   11  (  6.874197, -6.712549,  7.937304 )     0.61140055
  WF centre and spread   12  ( -7.936217,  6.097673, -7.937656 )     0.65186498
  WF centre and spread   13  (  5.812298,  7.324247,  7.937311 )     0.60996607
  WF centre and spread   14  (  7.935071, -6.095180,  7.937657 )     0.65161759
  WF centre and spread   15  (  5.931013, -7.397401,  7.648145 )     1.20029946
  Sum of centres and spreads ( 71.362425,  7.925003,  7.937723 )    12.95834922

     12    -0.332E-04                        12.9583492239       0.01  <-- CONV
        O_D=      0.0000000 O_OD=      2.5028766 O_TOT=     12.9583492 <-- SPRD
 Delta: O_D=  0.0000000E+00 O_OD= -0.3319142E-04 O_TOT= -0.3319142E-04 <-- DLTA
 ------------------------------------------------------------------------------
 Cycle:     13
  WF centre and spread    1  (  4.748248,  7.935475,  7.937649 )     0.65234629
  WF centre and spread    2  ( -6.875134,  7.935470, -7.937657 )     0.65233720
  WF centre and spread    3  (  5.813348, -6.095186, -7.937652 )     0.65160499
  WF centre and spread    4  (  5.931436, -7.397552, -7.647870 )     1.20169016
  WF centre and spread    5  (  7.936071,  7.324203,  7.937378 )     0.60993423
  WF centre and spread    6  (  6.874712,  6.850300,  7.648880 )     1.20443567
  WF centre and spread    7  (  6.874663,  6.850706, -7.648632 )     1.20567702
  WF centre and spread    8  (  7.816679, -7.396419,  7.648115 )     1.20090931
  WF centre and spread    9  (  7.816414, -7.396651, -7.647899 )     1.20192278
  WF centre and spread   10  (  5.809323,  6.097679, -7.937657 )     0.65185924
  WF centre and spread   11  (  6.874202, -6.712560,  7.937481 )     0.61137515
  WF centre and spread   12  ( -7.936216,  6.097674, -7.937657 )     0.65186488
  WF centre and spread   13  (  5.812319,  7.324232,  7.937484 )     0.60994800
  WF centre and spread   14  (  7.935072, -6.095180,  7.937657 )     0.65161497
  WF centre and spread   15  (  5.931313, -7.397179,  7.648073 )     1.20082097
  Sum of centres and spreads ( 71.362449,  7.925012,  7.937691 )    12.95834085

     13    -0.838E-05                        12.9583408451       0.01  <-- CONV
        O_D=      0.0000000 O_OD=      2.5028682 O_TOT=     12.9583408 <-- SPRD
 Delta: O_D=  0.0000000E+00 O_OD= -0.8378798E-05 O_TOT= -0.8378798E-05 <-- DLTA
 ------------------------------------------------------------------------------
 Cycle:     14
  WF centre and spread    1  (  4.748247,  7.935473,  7.937653 )     0.65234349
  WF centre and spread    2  ( -6.875134,  7.935471, -7.937657 )     0.65233866
  WF centre and spread    3  (  5.813350, -6.095185, -7.937655 )     0.65160688
  WF centre and spread    4  (  5.931526, -7.397254, -7.647935 )     1.20152054
  WF centre and spread    5  (  7.936077,  7.324209,  7.937517 )     0.60993507
  WF centre and spread    6  (  6.874464,  6.850392,  7.648817 )     1.20471857
  WF centre and spread    7  (  6.874439,  6.850597, -7.648692 )     1.20534380
  WF centre and spread    8  (  7.816724, -7.396667,  7.648059 )     1.20114934
  WF centre and spread    9  (  7.816591, -7.396784, -7.647950 )     1.20165844
  WF centre and spread   10  (  5.809323,  6.097679, -7.937658 )     0.65186052
  WF centre and spread   11  (  6.874203, -6.712565,  7.937569 )     0.61136252
  WF centre and spread   12  ( -7.936216,  6.097675, -7.937657 )     0.65186481
  WF centre and spread   13  (  5.812329,  7.324225,  7.937570 )     0.60993907
  WF centre and spread   14  (  7.935072, -6.095180,  7.937658 )     0.65161364
  WF centre and spread   15  (  5.931465, -7.397067,  7.648036 )     1.20108336
  Sum of centres and spreads ( 71.362461,  7.925017,  7.937675 )    12.95833873

     14    -0.212E-05                        12.9583387283       0.01  <-- CONV
        O_D=      0.0000000 O_OD=      2.5028661 O_TOT=     12.9583387 <-- SPRD
 Delta: O_D=  0.0000000E+00 O_OD= -0.2116790E-05 O_TOT= -0.2116790E-05 <-- DLTA
 ------------------------------------------------------------------------------
 Cycle:     15
  WF centre and spread    1  (  4.748247,  7.935472,  7.937656 )     0.65234207
  WF centre and spread    2  ( -6.875134,  7.935471, -7.937658 )     0.65233940
  WF centre and spread    3  (  5.813351, -6.095184, -7.937657 )     0.65160782
  WF centre and spread    4  (  5.931572, -7.397104, -7.647967 )     1.20143535
  WF centre and spread    5  (  7.936080,  7.324211,  7.937587 )     0.60993555
  WF centre and spread    6  (  6.874339,  6.850439,  7.648785 )     1.20486128
  WF centre and spread    7  (  6.874326,  6.850541, -7.648723 )     1.20517605
  WF centre and spread    8  (  7.816747, -7.396792,  7.648031 )     1.20126992
  WF centre and spread    9  (  7.816680, -7.396851, -7.647976 )     1.20152570
  WF centre and spread   10  (  5.809323,  6.097679, -7.937658 )     0.65186116
  WF centre and spread   11  (  6.874204, -6.712568,  7.937613 )     0.61135621
  WF centre and spread   12  ( -7.936215,  6.097675, -7.937658 )     0.65186478
  WF centre and spread   13  (  5.812334,  7.324221,  7.937614 )     0.60993462
  WF centre and spread   14  (  7.935072, -6.095180,  7.937658 )     0.65161297
  WF centre and spread   15  (  5.931541, -7.397010,  7.648018 )     1.20121532
  Sum of centres and spreads ( 71.362467,  7.925020,  7.937667 )    12.95833819

     15    -0.535E-06                        12.9583381934       0.01  <-- CONV
        O_D=      0.0000000 O_OD=      2.5028655 O_TOT=     12.9583382 <-- SPRD
 Delta: O_D=  0.0000000E+00 O_OD= -0.5349553E-06 O_TOT= -0.5349553E-06 <-- DLTA
 ------------------------------------------------------------------------------
 Cycle:     16
  WF centre and spread    1  (  4.748247,  7.935472,  7.937657 )     0.65234136
  WF centre and spread    2  ( -6.875134,  7.935471, -7.937658 )     0.65233976
  WF centre and spread    3  (  5.813351, -6.095184, -7.937657 )     0.65160828
  WF centre and spread    4  (  5.931595, -7.397029, -7.647983 )     1.20139254
  WF centre and spread    5  (  7.936081,  7.324213,  7.937622 )     0.60993581
  WF centre and spread    6  (  6.874276,  6.850462,  7.648769 )     1.20493318
  WF centre and spread    7  (  6.874270,  6.850514, -7.648738 )     1.20509164
  WF centre and spread    8  (  7.816759, -7.396855,  7.648017 )     1.20133050
  WF centre and spread    9  (  7.816725, -7.396884, -7.647989 )     1.20145902
  WF centre and spread   10  (  5.809323,  6.097679, -7.937658 )     0.65186148
  WF centre and spread   11  (  6.874205, -6.712570,  7.937636 )     0.61135305
  WF centre and spread   12  ( -7.936215,  6.097675, -7.937658 )     0.65186476
  WF centre and spread   13  (  5.812337,  7.324219,  7.937636 )     0.60993239
  WF centre and spread   14  (  7.935072, -6.095180,  7.937658 )     0.65161263
  WF centre and spread   15  (  5.931579, -7.396982,  7.648009 )     1.20128166
  Sum of centres and spreads ( 71.362470,  7.925021,  7.937662 )    12.95833806

     16    -0.135E-06                        12.9583380581       0.01  <-- CONV
        O_D=      0.0000000 O_OD=      2.5028654 O_TOT=     12.9583381 <-- SPRD
 Delta: O_D=  0.0000000E+00 O_OD= -0.1352107E-06 O_TOT= -0.1352107E-06 <-- DLTA
 ------------------------------------------------------------------------------
 Cycle:     17
  WF centre and spread    1  (  4.748247,  7.935472,  7.937657 )     0.65234100
  WF centre and spread    2  ( -6.875134,  7.935472, -7.937658 )     0.65233995
  WF centre and spread    3  (  5.813352, -6.095184, -7.937658 )     0.65160851
  WF centre and spread    4  (  5.931606, -7.396991, -7.647991 )     1.20137102
  WF centre and spread    5  (  7.936082,  7.324214,  7.937640 )     0.60993594
  WF centre and spread    6  (  6.874245,  6.850474,  7.648761 )     1.20496936
  WF centre and spread    7  (  6.874241,  6.850500, -7.648745 )     1.20504918
  WF centre and spread    8  (  7.816764, -7.396887,  7.648010 )     1.20136094
  WF centre and spread    9  (  7.816748, -7.396901, -7.647996 )     1.20142552
  WF centre and spread   10  (  5.809323,  6.097679, -7.937658 )     0.65186164
  WF centre and spread   11  (  6.874205, -6.712570,  7.937647 )     0.61135147
  WF centre and spread   12  ( -7.936215,  6.097675, -7.937658 )     0.65186475
  WF centre and spread   13  (  5.812338,  7.324218,  7.937647 )     0.60993127
  WF centre and spread   14  (  7.935072, -6.095180,  7.937658 )     0.65161246
  WF centre and spread   15  (  5.931598, -7.396968,  7.648004 )     1.20131501
  Sum of centres and spreads ( 71.362471,  7.925022,  7.937660 )    12.95833802

     17    -0.342E-07                        12.9583380240       0.01  <-- CONV
        O_D=      0.0000000 O_OD=      2.5028654 O_TOT=     12.9583380 <-- SPRD
 Delta: O_D=  0.0000000E+00 O_OD= -0.3417597E-07 O_TOT= -0.3417597E-07 <-- DLTA
 ------------------------------------------------------------------------------
 Cycle:     18
  WF centre and spread    1  (  4.748247,  7.935472,  7.937658 )     0.65234082
  WF centre and spread    2  ( -6.875134,  7.935472, -7.937658 )     0.65234004
  WF centre and spread    3  (  5.813352, -6.095184, -7.937658 )     0.65160863
  WF centre and spread    4  (  5.931612, -7.396972, -7.647995 )     1.20136021
  WF centre and spread    5  (  7.936082,  7.324214,  7.937649 )     0.60993601
  WF centre and spread    6  (  6.874229,  6.850480,  7.648757 )     1.20498757
  WF centre and spread    7  (  6.874227,  6.850493, -7.648749 )     1.20502783
  WF centre and spread    8  (  7.816767, -7.396902,  7.648006 )     1.20137623
  WF centre and spread    9  (  7.816759, -7.396910, -7.647999 )     1.20140868
  WF centre and spread   10  (  5.809323,  6.097679, -7.937658 )     0.65186172
  WF centre and spread   11  (  6.874205, -6.712571,  7.937653 )     0.61135067
  WF centre and spread   12  ( -7.936215,  6.097675, -7.937658 )     0.65186475
  WF centre and spread   13  (  5.812339,  7.324218,  7.937653 )     0.60993071
  WF centre and spread   14  (  7.935072, -6.095180,  7.937658 )     0.65161237
  WF centre and spread   15  (  5.931608, -7.396960,  7.648002 )     1.20133178
  Sum of centres and spreads ( 71.362472,  7.925022,  7.937659 )    12.95833802

     18    -0.864E-08                        12.9583380153       0.01  <-- CONV
        O_D=      0.0000000 O_OD=      2.5028653 O_TOT=     12.9583380 <-- SPRD
 Delta: O_D=  0.0000000E+00 O_OD= -0.8638324E-08 O_TOT= -0.8638324E-08 <-- DLTA
 ------------------------------------------------------------------------------
 Cycle:     19
  WF centre and spread    1  (  4.748247,  7.935472,  7.937658 )     0.65234073
  WF centre and spread    2  ( -6.875134,  7.935472,  7.937658 )     0.65234009
  WF centre and spread    3  (  5.813352, -6.095184, -7.937658 )     0.65160869
  WF centre and spread    4  (  5.931615, -7.396963, -7.647997 )     1.20135477
  WF centre and spread    5  (  7.936082,  7.324214,  7.937654 )     0.60993604
  WF centre and spread    6  (  6.874221,  6.850483,  7.648755 )     1.20499672
  WF centre and spread    7  (  6.874220,  6.850489, -7.648751 )     1.20501709
  WF centre and spread    8  (  7.816769, -7.396910,  7.648004 )     1.20138392
  WF centre and spread    9  (  7.816765, -7.396914, -7.648001 )     1.20140022
  WF centre and spread   10  (  5.809323,  6.097679, -7.937658 )     0.65186176
  WF centre and spread   11  (  6.874205, -6.712571,  7.937655 )     0.61135027
  WF centre and spread   12  ( -7.936215,  6.097675, -7.937658 )     0.65186475
  WF centre and spread   13  (  5.812339,  7.324217,  7.937655 )     0.60993043
  WF centre and spread   14  (  7.935072, -6.095180,  7.937658 )     0.65161233
  WF centre and spread   15  (  5.931613, -7.396957,  7.648001 )     1.20134021
  Sum of centres and spreads ( 71.362472,  7.925022, 23.812975 )    12.95833801

     19    -0.218E-08                        12.9583380132       0.01  <-- CONV
        O_D=      0.0000000 O_OD=      2.5028653 O_TOT=     12.9583380 <-- SPRD
 Delta: O_D=  0.0000000E+00 O_OD= -0.2183526E-08 O_TOT= -0.2183526E-08 <-- DLTA
 ------------------------------------------------------------------------------
 Cycle:     20
  WF centre and spread    1  (  4.748247,  7.935472,  7.937658 )     0.65234068
  WF centre and spread    2  ( -6.875134,  7.935472,  7.937658 )     0.65234011
  WF centre and spread    3  (  5.813352, -6.095184, -7.937658 )     0.65160872
  WF centre and spread    4  (  5.931616, -7.396958, -7.647998 )     1.20135204
  WF centre and spread    5  (  7.936082,  7.324214,  7.937656 )     0.60993606
  WF centre and spread    6  (  6.874217,  6.850484,  7.648754 )     1.20500133
  WF centre and spread    7  (  6.874216,  6.850487, -7.648752 )     1.20501169
  WF centre and spread    8  (  7.816770, -7.396914,  7.648003 )     1.20138779
  WF centre and spread    9  (  7.816767, -7.396916, -7.648002 )     1.20139597
  WF centre and spread   10  (  5.809323,  6.097679, -7.937658 )     0.65186178
  WF centre and spread   11  (  6.874205, -6.712571,  7.937657 )     0.61135007
  WF centre and spread   12  ( -7.936215,  6.097675, -7.937658 )     0.65186475
  WF centre and spread   13  (  5.812339,  7.324217,  7.937657 )     0.60993029
  WF centre and spread   14  (  7.935072, -6.095180,  7.937658 )     0.65161230
  WF centre and spread   15  (  5.931615, -7.396955,  7.648000 )     1.20134445
  Sum of centres and spreads ( 71.362472,  7.925022, 23.812975 )    12.95833801

     20    -0.552E-09                        12.9583380126       0.01  <-- CONV
        O_D=      0.0000000 O_OD=      2.5028653 O_TOT=     12.9583380 <-- SPRD
 Delta: O_D=  0.0000000E+00 O_OD= -0.5518359E-09 O_TOT= -0.5518359E-09 <-- DLTA
 ------------------------------------------------------------------------------
 Cycle:     21
  WF centre and spread    1  (  4.748247,  7.935472,  7.937658 )     0.65234066
  WF centre and spread    2  ( -6.875134,  7.935472,  7.937658 )     0.65234012
  WF centre and spread    3  (  5.813352, -6.095184, -7.937658 )     0.65160874
  WF centre and spread    4  (  5.931617, -7.396956, -7.647999 )     1.20135066
  WF centre and spread    5  (  7.936082,  7.324214,  7.937657 )     0.60993607
  WF centre and spread    6  (  6.874215,  6.850485,  7.648754 )     1.20500364
  WF centre and spread    7  (  6.874214,  6.850487, -7.648753 )     1.20500897
  WF centre and spread    8  (  7.816770, -7.396916,  7.648003 )     1.20138973
  WF centre and spread    9  (  7.816769, -7.396917, -7.648002 )     1.20139383
  WF centre and spread   10  (  5.809323,  6.097679, -7.937658 )     0.65186179
  WF centre and spread   11  (  6.874205, -6.712571,  7.937657 )     0.61134997
  WF centre and spread   12  ( -7.936215,  6.097675, -7.937658 )     0.65186475
  WF centre and spread   13  (  5.812339,  7.324217,  7.937657 )     0.60993022
  WF centre and spread   14  (  7.935072, -6.095180, -7.937658 )     0.65161230
  WF centre and spread   15  (  5.931616, -7.396954,  7.648000 )     1.20134658
  Sum of centres and spreads ( 71.362472,  7.925022,  7.937659 )    12.95833801

     21    -0.140E-09                        12.9583380125       0.01  <-- CONV
        O_D=      0.0000000 O_OD=      2.5028653 O_TOT=     12.9583380 <-- SPRD
 Delta: O_D=  0.0000000E+00 O_OD= -0.1396074E-09 O_TOT= -0.1396074E-09 <-- DLTA
 ------------------------------------------------------------------------------
 Cycle:     22
  WF centre and spread    1  (  4.748247,  7.935471,  7.937658 )     0.65234064
  WF centre and spread    2  ( -6.875134,  7.935472,  7.937658 )     0.65234013
  WF centre and spread    3  (  5.813352, -6.095184, -7.937658 )     0.65160874
  WF centre and spread    4  (  5.931617, -7.396955, -7.647999 )     1.20134998
  WF centre and spread    5  (  7.936082,  7.324214,  7.937658 )     0.60993607
  WF centre and spread    6  (  6.874214,  6.850485,  7.648753 )     1.20500480
  WF centre and spread    7  (  6.874214,  6.850486, -7.648753 )     1.20500761
  WF centre and spread    8  (  7.816770, -7.396917,  7.648003 )     1.20139071
  WF centre and spread    9  (  7.816770, -7.396918, -7.648002 )     1.20139275
  WF centre and spread   10  (  5.809323,  6.097679, -7.937658 )     0.65186180
  WF centre and spread   11  (  6.874205, -6.712571,  7.937658 )     0.61134992
  WF centre and spread   12  ( -7.936215,  6.097675, -7.937658 )     0.65186475
  WF centre and spread   13  (  5.812339,  7.324217,  7.937658 )     0.60993018
  WF centre and spread   14  (  7.935072, -6.095180, -7.937658 )     0.65161229
  WF centre and spread   15  (  5.931617, -7.396954,  7.648000 )     1.20134765
  Sum of centres and spreads ( 71.362473,  7.925022,  7.937658 )    12.95833801

     22    -0.352E-10                        12.9583380124       0.01  <-- CONV
        O_D=      0.0000000 O_OD=      2.5028653 O_TOT=     12.9583380 <-- SPRD
 Delta: O_D=  0.0000000E+00 O_OD= -0.3524292E-10 O_TOT= -0.3524292E-10 <-- DLTA
 ------------------------------------------------------------------------------
 Cycle:     23
  WF centre and spread    1  (  4.748247,  7.935471,  7.937658 )     0.65234064
  WF centre and spread    2  ( -6.875134,  7.935472,  7.937658 )     0.65234013
  WF centre and spread    3  (  5.813352, -6.095184, -7.937658 )     0.65160875
  WF centre and spread    4  (  5.931617, -7.396954, -7.647999 )     1.20134963
  WF centre and spread    5  (  7.936082,  7.324214,  7.937658 )     0.60993607
  WF centre and spread    6  (  6.874213,  6.850486,  7.648753 )     1.20500539
  WF centre and spread    7  (  6.874213,  6.850486, -7.648753 )     1.20500692
  WF centre and spread    8  (  7.816770, -7.396918,  7.648003 )     1.20139120
  WF centre and spread    9  (  7.816770, -7.396918, -7.648002 )     1.20139221
  WF centre and spread   10  (  5.809323,  6.097679, -7.937658 )     0.65186180
  WF centre and spread   11  (  6.874205, -6.712571,  7.937658 )     0.61134989
  WF centre and spread   12  ( -7.936215,  6.097675, -7.937658 )     0.65186475
  WF centre and spread   13  (  5.812339,  7.324217,  7.937658 )     0.60993016
  WF centre and spread   14  (  7.935072, -6.095180, -7.937658 )     0.65161229
  WF centre and spread   15  (  5.931617, -7.396953,  7.648000 )     1.20134819
  Sum of centres and spreads ( 71.362473,  7.925022,  7.937658 )    12.95833801

     23    -0.898E-11                        12.9583380124       0.01  <-- CONV
        O_D=      0.0000000 O_OD=      2.5028653 O_TOT=     12.9583380 <-- SPRD
 Delta: O_D=  0.0000000E+00 O_OD= -0.8981260E-11 O_TOT= -0.8981260E-11 <-- DLTA
 ------------------------------------------------------------------------------
 Cycle:     24
  WF centre and spread    1  (  4.748247,  7.935471,  7.937658 )     0.65234064
  WF centre and spread    2  ( -6.875134,  7.935472,  7.937658 )     0.65234013
  WF centre and spread    3  (  5.813352, -6.095184, -7.937658 )     0.65160875
  WF centre and spread    4  (  5.931618, -7.396954, -7.647999 )     1.20134945
  WF centre and spread    5  (  7.936082,  7.324214,  7.937658 )     0.60993607
  WF centre and spread    6  (  6.874213,  6.850486,  7.648753 )     1.20500568
  WF centre and spread    7  (  6.874213,  6.850486, -7.648753 )     1.20500658
  WF centre and spread    8  (  7.816770, -7.396918,  7.648003 )     1.20139144
  WF centre and spread    9  (  7.816770, -7.396918, -7.648003 )     1.20139194
  WF centre and spread   10  (  5.809323,  6.097679, -7.937658 )     0.65186180
  WF centre and spread   11  (  6.874205, -6.712571,  7.937658 )     0.61134988
  WF centre and spread   12  ( -7.936215,  6.097675, -7.937658 )     0.65186475
  WF centre and spread   13  (  5.812339,  7.324217,  7.937658 )     0.60993015
  WF centre and spread   14  (  7.935072, -6.095180, -7.937658 )     0.65161229
  WF centre and spread   15  (  5.931618, -7.396953,  7.648000 )     1.20134846
  Sum of centres and spreads ( 71.362473,  7.925022,  7.937658 )    12.95833801

     24    -0.227E-11                        12.9583380124       0.01  <-- CONV
        O_D=      0.0000000 O_OD=      2.5028653 O_TOT=     12.9583380 <-- SPRD
 Delta: O_D=  0.0000000E+00 O_OD= -0.2273737E-11 O_TOT= -0.2273737E-11 <-- DLTA
 ------------------------------------------------------------------------------
 Cycle:     25
  WF centre and spread    1  (  4.748247,  7.935471,  7.937658 )     0.65234064
  WF centre and spread    2  ( -6.875134,  7.935472,  7.937658 )     0.65234013
  WF centre and spread    3  (  5.813352, -6.095184, -7.937658 )     0.65160875
  WF centre and spread    4  (  5.931618, -7.396953, -7.647999 )     1.20134936
  WF centre and spread    5  (  7.936082,  7.324214,  7.937658 )     0.60993607
  WF centre and spread    6  (  6.874213,  6.850486,  7.648753 )     1.20500583
  WF centre and spread    7  (  6.874213,  6.850486, -7.648753 )     1.20500640
  WF centre and spread    8  (  7.816770, -7.396918,  7.648002 )     1.20139157
  WF centre and spread    9  (  7.816770, -7.396918, -7.648003 )     1.20139180
  WF centre and spread   10  (  5.809323,  6.097679, -7.937658 )     0.65186180
  WF centre and spread   11  (  6.874205, -6.712571, -7.937658 )     0.61134988
  WF centre and spread   12  ( -7.936215,  6.097675, -7.937658 )     0.65186475
  WF centre and spread   13  (  5.812339,  7.324217,  7.937658 )     0.60993015
  WF centre and spread   14  (  7.935072, -6.095180, -7.937658 )     0.65161229
  WF centre and spread   15  (  5.931618, -7.396953,  7.648000 )     1.20134860
  Sum of centres and spreads ( 71.362473,  7.925022, -7.937658 )    12.95833801

     25    -0.625E-12                        12.9583380124       0.01  <-- CONV
        O_D=      0.0000000 O_OD=      2.5028653 O_TOT=     12.9583380 <-- SPRD
 Delta: O_D=  0.0000000E+00 O_OD= -0.6252776E-12 O_TOT= -0.6252776E-12 <-- DLTA
 ------------------------------------------------------------------------------
 Cycle:     26
  WF centre and spread    1  (  4.748247,  7.935471,  7.937658 )     0.65234063
  WF centre and spread    2  ( -6.875134,  7.935472,  7.937658 )     0.65234013
  WF centre and spread    3  (  5.813352, -6.095184, -7.937658 )     0.65160875
  WF centre and spread    4  (  5.931618, -7.396953, -7.647999 )     1.20134932
  WF centre and spread    5  (  7.936082,  7.324214, -7.937658 )     0.60993608
  WF centre and spread    6  (  6.874213,  6.850486,  7.648753 )     1.20500591
  WF centre and spread    7  (  6.874213,  6.850486, -7.648753 )     1.20500631
  WF centre and spread    8  (  7.816770, -7.396918,  7.648002 )     1.20139163
  WF centre and spread    9  (  7.816770, -7.396918, -7.648003 )     1.20139173
  WF centre and spread   10  (  5.809323,  6.097679, -7.937658 )     0.65186180
  WF centre and spread   11  (  6.874205, -6.712571, -7.937658 )     0.61134987
  WF centre and spread   12  ( -7.936215,  6.097675, -7.937658 )     0.65186475
  WF centre and spread   13  (  5.812339,  7.324217, -7.937658 )     0.60993015
  WF centre and spread   14  (  7.935072, -6.095180, -7.937658 )     0.65161228
  WF centre and spread   15  (  5.931618, -7.396953,  7.648000 )     1.20134866
  Sum of centres and spreads ( 71.362473,  7.925022,-39.688290 )    12.95833801

     26    -0.171E-12                        12.9583380124       0.01  <-- CONV
        O_D=      0.0000000 O_OD=      2.5028653 O_TOT=     12.9583380 <-- SPRD
 Delta: O_D=  0.0000000E+00 O_OD= -0.1705303E-12 O_TOT= -0.1705303E-12 <-- DLTA
 ------------------------------------------------------------------------------

             <<<     Delta < 1.000E-10  over  5 iterations     >>>
             <<< Wannierisation convergence criteria satisfied >>>

 Final State
  WF centre and spread    1  (  4.748247,  7.935471,  7.937658 )     0.65234063
  WF centre and spread    2  ( -6.875134,  7.935472,  7.937658 )     0.65234013
  WF centre and spread    3  (  5.813352, -6.095184, -7.937658 )     0.65160875
  WF centre and spread    4  (  5.931618, -7.396953, -7.647999 )     1.20134932
  WF centre and spread    5  (  7.936082,  7.324214, -7.937658 )     0.60993608
  WF centre and spread    6  (  6.874213,  6.850486,  7.648753 )     1.20500591
  WF centre and spread    7  (  6.874213,  6.850486, -7.648753 )     1.20500631
  WF centre and spread    8  (  7.816770, -7.396918,  7.648002 )     1.20139163
  WF centre and spread    9  (  7.816770, -7.396918, -7.648003 )     1.20139173
  WF centre and spread   10  (  5.809323,  6.097679, -7.937658 )     0.65186180
  WF centre and spread   11  (  6.874205, -6.712571, -7.937658 )     0.61134987
  WF centre and spread   12  ( -7.936215,  6.097675, -7.937658 )     0.65186475
  WF centre and spread   13  (  5.812339,  7.324217, -7.937658 )     0.60993015
  WF centre and spread   14  (  7.935072, -6.095180, -7.937658 )     0.65161228
  WF centre and spread   15  (  5.931618, -7.396953,  7.648000 )     1.20134866
  Sum of centres and spreads ( 71.362473,  7.925022,-39.688290 )    12.95833801

         Spreads (Ang^2)       Omega I      =    10.455472666
        ================       Omega D      =     0.000000000
                               Omega OD     =     2.502865346
    Final Spread (Ang^2)       Omega Total  =    12.958338012
 ------------------------------------------------------------------------------
 Time for wannierise            0.005 (sec)

 Writing checkpoint file benzene.chk... done

 Total Execution Time           0.015 (sec)

 *===========================================================================*
 |                             TIMING INFORMATION                            |
 *===========================================================================*
 |    Tag                                                Ncalls      Time (s)|
 |---------------------------------------------------------------------------|
 |kmesh: get                                        :         1         0.005|
 |overlap: read                                     :         1         0.002|
 |wann: main_gamma                                  :         1         0.005|
 *---------------------------------------------------------------------------*

 All done: wannier90 exiting
