
             +---------------------------------------------------+
             |                                                   |
             |                   WANNIER90                       |
             |                                                   |
             +---------------------------------------------------+
             |                                                   |
             |        Welcome to the Maximally-Localized         |
             |        Generalized Wannier Functions code         |
             |            http://www.wannier.org                 |
             |                                                   |
             |  Wannier90 v2.0 Authors:                          |
             |    Arash A. Mostofi  (Imperial College London)    |
             |    Giovanni Pizzi    (EPFL)                       |
             |    Ivo Souza         (Universidad del Pais Vasco) |
             |    Jonathan R. Yates (University of Oxford)       |
             |                                                   |
             |  Wannier90 Contributors:                          |
             |    Young-Su Lee       (KIST, S. Korea)            |
             |    Matthew Shelley    (Imperial College London)   |
             |    Nicolas Poilvert   (Penn State University)     |
             |    Raffaello Bianco   (Paris 6 and CNRS)          |
             |    Gabriele Sclauzero (ETH Zurich)                |
             |                                                   |
             |  Wannier77 Authors:                               |
             |    Nicola Marzari    (EPFL)                       |
             |    Ivo Souza         (Universidad del Pais Vasco) |
             |    David Vanderbilt  (Rutgers University)         |
             |                                                   |
             |  Please cite                                      |
             |                                                   |
             |  [ref] "Wannier90: A Tool for Obtaining Maximally |
             |         Localised Wannier Functions"              |
             |        A. A. Mostofi, J. R. Yates, Y.-S. Lee,     |
             |        I. Souza, D. Vanderbilt and N. Marzari     |
             |        Comput. Phys. Commun. 178, 685 (2008)      |
             |                                                   |
             |  in any publications arising from the use of      |
             |  this code. For the method please cite            |
             |                                                   |
             |  [ref] "Maximally Localized Generalised Wannier   |
             |         Functions for Composite Energy Bands"     |
             |         N. Marzari and D. Vanderbilt              |
             |         Phys. Rev. B 56 12847 (1997)              |
             |                                                   |
             |  [ref] "Maximally Localized Wannier Functions     |
             |         for Entangled Energy Bands"               |
             |         I. Souza, N. Marzari and D. Vanderbilt    |
             |         Phys. Rev. B 65 035109 (2001)             |
             |                                                   |
             |                                                   |
             | Copyright (c) 1996-2015                           |
             |        Arash A. Mostofi, Jonathan R. Yates,       |
             |        Young-Su Lee, Giovanni Pizzi, Ivo Souza,   |
             |        David Vanderbilt and Nicola Marzari        |
             |                                                   |
             |        Release: 2.0.1   2nd April 2015            |
             |                                                   |
             | This program is free software; you can            |
             | redistribute it and/or modify it under the terms  |
             | of the GNU General Public License as published by |
             | the Free Software Foundation; either version 2 of |
             | the License, or (at your option) any later version|
             |                                                   |
             | This program is distributed in the hope that it   |
             | will be useful, but WITHOUT ANY WARRANTY; without |
             | even the implied warranty of MERCHANTABILITY or   |
             | FITNESS FOR A PARTICULAR PURPOSE. See the GNU     |
             | General Public License for more details.          |
             |                                                   |
             | You should have received a copy of the GNU General|
             | Public License along with this program; if not,   |
             | write to the Free Software Foundation, Inc.,      |
             | 675 Mass Ave, Cambridge, MA 02139, USA.           |
             |                                                   |
             +---------------------------------------------------+
             |    Execution started on 16Sep2016 at 11:20:14     |
             +---------------------------------------------------+
 
 ******************************************************************************
 * -> Using CODATA 2006 constant values                                       *
 *    (http://physics.nist.gov/cuu/Constants/index.html)                      *
 * -> Using Bohr value from CODATA                                            *
 ******************************************************************************
 

                                    ------
                                    SYSTEM
                                    ------

                              Lattice Vectors (Ang)
                    a_1    -2.698800   0.000000   2.698800
                    a_2     0.000000   2.698800   2.698800
                    a_3    -2.698800   2.698800   0.000000

                   Unit Cell Volume:      39.31354  (Ang^3)

                        Reciprocal-Space Vectors (Ang^-1)
                    b_1    -1.164070  -1.164070   1.164070
                    b_2     1.164070   1.164070   1.164070
                    b_3    -1.164070   1.164070  -1.164070
  
 *----------------------------------------------------------------------------*
 |   Site       Fractional Coordinate          Cartesian Coordinate (Ang)     |
 +----------------------------------------------------------------------------+
 | Si   1  -0.25000   0.75000  -0.25000   |    1.34940   1.34940   1.34940    |
 | Si   2   0.00000   0.00000   0.00000   |    0.00000   0.00000   0.00000    |
 *----------------------------------------------------------------------------*
  
                                ------------
                                K-POINT GRID
                                ------------
  
             Grid size =  4 x  4 x  4      Total points =   64
  
  
 *---------------------------------- MAIN ------------------------------------*
 |  Number of Wannier Functions               :                 8             |
 |  Number of input Bloch states              :                12             |
 |  Output verbosity (1=low, 5=high)          :                 1             |
 |  Timing Level (1=low, 5=high)              :                 1             |
 |  Optimisation (0=memory, 3=speed)          :                 3             |
 |  Length Unit                               :               Ang             |
 |  Post-processing setup (write *.nnkp)      :                 F             |
 |  Using Gamma-only branch of algorithms     :                 F             |
 *----------------------------------------------------------------------------*
 *------------------------------- WANNIERISE ---------------------------------*
 |  Total number of iterations                :               300             |
 |  Number of CG steps before reset           :                 5             |
 |  Trial step length for line search         :             2.000             |
 |  Convergence tolerence                     :         0.100E-09             |
 |  Convergence window                        :                -1             |
 |  Iterations between writing output         :                10             |
 |  Iterations between backing up to disk     :               100             |
 |  Write r^2_nm to file                      :                 F             |
 |  Write xyz WF centres to file              :                 F             |
 |  Write on-site energies <0n|H|0n> to file  :                 F             |
 |  Use guiding centre to control phases      :                 F             |
 |  Use phases for initial projections        :                 F             |
 *----------------------------------------------------------------------------*
 *------------------------------- DISENTANGLE --------------------------------*
 |  Using band disentanglement                :                 T             |
 |  Total number of iterations                :               120             |
 |  Mixing ratio                              :             1.000             |
 |  Convergence tolerence                     :         1.000E-13             |
 |  Convergence window                        :                 3             |
 *----------------------------------------------------------------------------*
 Time to read parameters        0.004 (sec)

 *---------------------------------- K-MESH ----------------------------------*
 +----------------------------------------------------------------------------+
 |                    Distance to Nearest-Neighbour Shells                    |
 |                    ------------------------------------                    |
 |          Shell             Distance (Ang^-1)          Multiplicity         |
 |          -----             -----------------          ------------         |
 |             1                   0.504057                      8            |
 |             2                   0.582035                      6            |
 |             3                   0.823122                     12            |
 |             4                   0.965196                     24            |
 |             5                   1.008114                      8            |
 |             6                   1.164070                      6            |
 |             7                   1.268516                     24            |
 |             8                   1.301470                     24            |
 |             9                   1.425689                     24            |
 |            10                   1.512172                     32            |
 |            11                   1.646244                     12            |
 |            12                   1.721683                     48            |
 +----------------------------------------------------------------------------+
 | The b-vectors are chosen automatically                                     |
 | The following shells are used:   1                                         |
 +----------------------------------------------------------------------------+
 |                        Shell   # Nearest-Neighbours                        |
 |                        -----   --------------------                        |
 |                          1               8                                 |
 +----------------------------------------------------------------------------+
 | Completeness relation is fully satisfied [Eq. (B1), PRB 56, 12847 (1997)]  |
 +----------------------------------------------------------------------------+
 |                  b_k Vectors (Ang^-1) and Weights (Ang^2)                  |
 |                  ----------------------------------------                  |
 |            No.         b_k(x)      b_k(y)      b_k(z)        w_b           |
 |            ---        --------------------------------     --------        |
 |             1         0.291018    0.291018    0.291018     1.475950        |
 |             2        -0.291018   -0.291018    0.291018     1.475950        |
 |             3        -0.291018    0.291018   -0.291018     1.475950        |
 |             4        -0.291018    0.291018    0.291018     1.475950        |
 |             5         0.291018   -0.291018    0.291018     1.475950        |
 |             6        -0.291018   -0.291018   -0.291018     1.475950        |
 |             7         0.291018    0.291018   -0.291018     1.475950        |
 |             8         0.291018   -0.291018   -0.291018     1.475950        |
 +----------------------------------------------------------------------------+
 |                           b_k Directions (Ang^-1)                          |
 |                           -----------------------                          |
 |            No.           x           y           z                         |
 |            ---        --------------------------------                     |
 |             1         0.291018    0.291018    0.291018                     |
 |             2        -0.291018   -0.291018    0.291018                     |
 |             3        -0.291018    0.291018   -0.291018                     |
 |             4        -0.291018    0.291018    0.291018                     |
 +----------------------------------------------------------------------------+
  
 *============================================================================*
 |                              MEMORY ESTIMATE                               |
 |         Maximum RAM allocated during each phase of the calculation         |
 *============================================================================*
 |                        Disentanglement            1.92 Mb                  |
 |                            Wannierise:            1.54 Mb                  |
 |                          plot_wannier:            1.54 Mb                  |
 *----------------------------------------------------------------------------*
  
 Starting a new Wannier90 calculation ...

 Time to get kmesh              0.100 (sec)

 Reading overlaps from silicon.mmn    : Created on 25Feb2006 at 11:03:51

 Reading projections from silicon.amn : Created on 25Feb2006 at 11:03:51

 Time to read overlaps          0.076 (sec)

 *------------------------------- DISENTANGLE --------------------------------*
 +----------------------------------------------------------------------------+
 |                              Energy  Windows                               |
 |                              ---------------                               |
 |                   Outer:   -5.82185  to   17.00000  (eV)                   |
 |                   Inner:   -5.82185  to    6.40000  (eV)                   |
 +----------------------------------------------------------------------------+
   Number of target bands to extract:    8

                   Unitarised projection of Wannier functions                  
                   ------------------------------------------                  
   A_mn = <psi_m|g_n> --> S = A.A^+ --> U = S^-1/2.A
   In dis_project... done
   Using an inner window (linner = T)
   In dis_proj_froz... done

                   Extraction of optimally-connected subspace                  
                   ------------------------------------------                  
 +---------------------------------------------------------------------+<-- DIS
 |  Iter     Omega_I(i-1)      Omega_I(i)      Delta (frac.)    Time   |<-- DIS
 +---------------------------------------------------------------------+<-- DIS
       1      12.70775084      11.99932157       5.904E-02      0.19    <-- DIS
       2      11.94864869      11.87247954       6.416E-03      0.19    <-- DIS
       3      11.86500516      11.85376172       9.485E-04      0.20    <-- DIS
       4      11.85233028      11.85025440       1.752E-04      0.20    <-- DIS
       5      11.84993023      11.84947619       3.832E-05      0.20    <-- DIS
       6      11.84939181      11.84927673       9.711E-06      0.21    <-- DIS
       7      11.84925270      11.84922035       2.730E-06      0.21    <-- DIS
       8      11.84921306      11.84920327       8.267E-07      0.22    <-- DIS
       9      11.84920092      11.84919776       2.670E-07      0.22    <-- DIS
      10      11.84919695      11.84919584       9.359E-08      0.22    <-- DIS
      11      11.84919551      11.84919507       3.721E-08      0.23    <-- DIS
      12      11.84919492      11.84919471       1.767E-08      0.23    <-- DIS
      13      11.84919462      11.84919449       1.020E-08      0.24    <-- DIS
      14      11.84919443      11.84919435       6.893E-09      0.24    <-- DIS
      15      11.84919430      11.84919424       5.153E-09      0.24    <-- DIS
      16      11.84919420      11.84919415       4.073E-09      0.25    <-- DIS
      17      11.84919412      11.84919408       3.316E-09      0.25    <-- DIS
      18      11.84919405      11.84919402       2.744E-09      0.25    <-- DIS
      19      11.84919400      11.84919397       2.291E-09      0.26    <-- DIS
      20      11.84919395      11.84919393       1.924E-09      0.26    <-- DIS
      21      11.84919391      11.84919389       1.621E-09      0.26    <-- DIS
      22      11.84919388      11.84919386       1.369E-09      0.27    <-- DIS
      23      11.84919385      11.84919384       1.158E-09      0.27    <-- DIS
      24      11.84919383      11.84919382       9.799E-10      0.28    <-- DIS
      25      11.84919381      11.84919380       8.300E-10      0.28    <-- DIS
      26      11.84919379      11.84919379       7.035E-10      0.28    <-- DIS
      27      11.84919378      11.84919377       5.964E-10      0.29    <-- DIS
      28      11.84919377      11.84919376       5.057E-10      0.29    <-- DIS
      29      11.84919376      11.84919375       4.289E-10      0.30    <-- DIS
      30      11.84919375      11.84919374       3.639E-10      0.30    <-- DIS
      31      11.84919374      11.84919374       3.087E-10      0.30    <-- DIS
      32      11.84919374      11.84919373       2.619E-10      0.30    <-- DIS
      33      11.84919373      11.84919373       2.222E-10      0.31    <-- DIS
      34      11.84919373      11.84919372       1.886E-10      0.31    <-- DIS
      35      11.84919372      11.84919372       1.600E-10      0.32    <-- DIS
      36      11.84919372      11.84919372       1.358E-10      0.32    <-- DIS
      37      11.84919372      11.84919371       1.152E-10      0.32    <-- DIS
      38      11.84919371      11.84919371       9.778E-11      0.33    <-- DIS
      39      11.84919371      11.84919371       8.298E-11      0.33    <-- DIS
      40      11.84919371      11.84919371       7.042E-11      0.34    <-- DIS
      41      11.84919371      11.84919371       5.976E-11      0.34    <-- DIS
      42      11.84919371      11.84919371       5.071E-11      0.34    <-- DIS
      43      11.84919371      11.84919371       4.304E-11      0.35    <-- DIS
      44      11.84919371      11.84919370       3.653E-11      0.35    <-- DIS
      45      11.84919370      11.84919370       3.100E-11      0.35    <-- DIS
      46      11.84919370      11.84919370       2.631E-11      0.36    <-- DIS
      47      11.84919370      11.84919370       2.232E-11      0.36    <-- DIS
      48      11.84919370      11.84919370       1.895E-11      0.36    <-- DIS
      49      11.84919370      11.84919370       1.608E-11      0.37    <-- DIS
      50      11.84919370      11.84919370       1.365E-11      0.37    <-- DIS
      51      11.84919370      11.84919370       1.158E-11      0.38    <-- DIS
      52      11.84919370      11.84919370       9.829E-12      0.38    <-- DIS
      53      11.84919370      11.84919370       8.342E-12      0.38    <-- DIS
      54      11.84919370      11.84919370       7.079E-12      0.39    <-- DIS
      55      11.84919370      11.84919370       6.007E-12      0.39    <-- DIS
      56      11.84919370      11.84919370       5.100E-12      0.40    <-- DIS
      57      11.84919370      11.84919370       4.327E-12      0.40    <-- DIS
      58      11.84919370      11.84919370       3.672E-12      0.40    <-- DIS
      59      11.84919370      11.84919370       3.117E-12      0.41    <-- DIS
      60      11.84919370      11.84919370       2.644E-12      0.41    <-- DIS
      61      11.84919370      11.84919370       2.245E-12      0.42    <-- DIS
      62      11.84919370      11.84919370       1.906E-12      0.42    <-- DIS
      63      11.84919370      11.84919370       1.617E-12      0.42    <-- DIS
      64      11.84919370      11.84919370       1.371E-12      0.42    <-- DIS
      65      11.84919370      11.84919370       1.164E-12      0.43    <-- DIS
      66      11.84919370      11.84919370       9.885E-13      0.43    <-- DIS
      67      11.84919370      11.84919370       8.387E-13      0.44    <-- DIS
      68      11.84919370      11.84919370       7.123E-13      0.44    <-- DIS
      69      11.84919370      11.84919370       6.048E-13      0.44    <-- DIS
      70      11.84919370      11.84919370       5.129E-13      0.45    <-- DIS
      71      11.84919370      11.84919370       4.354E-13      0.45    <-- DIS
      72      11.84919370      11.84919370       3.693E-13      0.46    <-- DIS
      73      11.84919370      11.84919370       3.131E-13      0.46    <-- DIS
      74      11.84919370      11.84919370       2.660E-13      0.46    <-- DIS
      75      11.84919370      11.84919370       2.249E-13      0.47    <-- DIS
      76      11.84919370      11.84919370       1.925E-13      0.47    <-- DIS
      77      11.84919370      11.84919370       1.621E-13      0.48    <-- DIS
      78      11.84919370      11.84919370       1.381E-13      0.48    <-- DIS
      79      11.84919370      11.84919370       1.170E-13      0.48    <-- DIS
      80      11.84919370      11.84919370       9.948E-14      0.48    <-- DIS
      81      11.84919370      11.84919370       8.371E-14      0.49    <-- DIS
      82      11.84919370      11.84919370       7.216E-14      0.49    <-- DIS

             <<<      Delta < 1.000E-13  over  3 iterations     >>>
             <<< Disentanglement convergence criteria satisfied >>>

        Final Omega_I    11.84919370 (Ang^2)

 +----------------------------------------------------------------------------+

 Time to disentangle bands      0.320 (sec)

 Writing checkpoint file silicon.chk... done


 *------------------------------- WANNIERISE ---------------------------------*
 +--------------------------------------------------------------------+<-- CONV
 | Iter  Delta Spread     RMS Gradient      Spread (Ang^2)      Time  |<-- CONV
 +--------------------------------------------------------------------+<-- CONV

 ------------------------------------------------------------------------------
 Initial State
  WF centre and spread    1  ( -0.445750, -0.446115, -0.446150 )     1.89692282
  WF centre and spread    2  ( -0.445755,  0.445594,  0.445586 )     1.89051033
  WF centre and spread    3  (  0.445692, -0.445863,  0.445296 )     1.90008958
  WF centre and spread    4  (  0.445695,  0.445320, -0.445876 )     1.90003880
  WF centre and spread    5  (  1.794367,  1.795127,  1.795119 )     1.90388650
  WF centre and spread    6  (  1.794668,  0.903582,  0.903557 )     1.89435059
  WF centre and spread    7  (  0.902762,  1.795482,  0.903512 )     1.90039597
  WF centre and spread    8  (  0.902766,  0.903514,  1.795450 )     1.90045076
  Sum of centres and spreads (  5.394445,  5.396641,  5.396495 )    15.18664536

      0     0.152E+02     0.0000000000       15.1866453612       0.50  <-- CONV
        O_D=      0.1627965 O_OD=      3.1746552 O_TOT=     15.1866454 <-- SPRD
 ------------------------------------------------------------------------------
 Cycle:      1
  WF centre and spread    1  ( -0.455537, -0.455521, -0.455558 )     1.83271702
  WF centre and spread    2  ( -0.455687,  0.455427,  0.455419 )     1.82936543
  WF centre and spread    3  (  0.455232, -0.455509,  0.455210 )     1.83494272
  WF centre and spread    4  (  0.455238,  0.455238, -0.455524 )     1.83488394
  WF centre and spread    5  (  1.804495,  1.804875,  1.804869 )     1.83711863
  WF centre and spread    6  (  1.804645,  0.893721,  0.893694 )     1.83204550
  WF centre and spread    7  (  0.893538,  1.804812,  0.893909 )     1.83561429
  WF centre and spread    8  (  0.893545,  0.893913,  1.804775 )     1.83567695
  Sum of centres and spreads (  5.395469,  5.396955,  5.396794 )    14.67236448

      1    -0.514E+00     0.6568775659       14.6723644771       0.52  <-- CONV
        O_D=      0.1213988 O_OD=      2.7017720 O_TOT=     14.6723645 <-- SPRD
 Delta: O_D= -0.4139768E-01 O_OD= -0.4728832E+00 O_TOT= -0.5142809E+00 <-- DLTA
 ------------------------------------------------------------------------------
 Cycle:     10
  WF centre and spread    1  ( -0.460759, -0.460704, -0.460754 )     1.81219831
  WF centre and spread    2  ( -0.460718,  0.460698,  0.460691 )     1.81247811
  WF centre and spread    3  (  0.460708, -0.460754,  0.460716 )     1.81248561
  WF centre and spread    4  (  0.460711,  0.460751, -0.460764 )     1.81243857
  WF centre and spread    5  (  1.810171,  1.810175,  1.810171 )     1.81236813
  WF centre and spread    6  (  1.810061,  0.888654,  0.888615 )     1.81255569
  WF centre and spread    7  (  0.888641,  1.810077,  0.888659 )     1.81249904
  WF centre and spread    8  (  0.888646,  0.888657,  1.810032 )     1.81255231
  Sum of centres and spreads (  5.397461,  5.397556,  5.397367 )    14.49957577

     10    -0.138E-05     0.0011889417       14.4995757702       0.60  <-- CONV
        O_D=      0.1054680 O_OD=      2.5449141 O_TOT=     14.4995758 <-- SPRD
 Delta: O_D= -0.4855909E-05 O_OD=  0.3472199E-05 O_TOT= -0.1383710E-05 <-- DLTA
 ------------------------------------------------------------------------------
 Cycle:     20
  WF centre and spread    1  ( -0.460730, -0.460708, -0.460764 )     1.81243702
  WF centre and spread    2  ( -0.460713,  0.460732,  0.460726 )     1.81247967
  WF centre and spread    3  (  0.460730, -0.460746,  0.460694 )     1.81246986
  WF centre and spread    4  (  0.460731,  0.460732, -0.460751 )     1.81242987
  WF centre and spread    5  (  1.810153,  1.810122,  1.810120 )     1.81242440
  WF centre and spread    6  (  1.810125,  0.888673,  0.888628 )     1.81242058
  WF centre and spread    7  (  0.888667,  1.810146,  0.888664 )     1.81243268
  WF centre and spread    8  (  0.888669,  0.888658,  1.810098 )     1.81248041
  Sum of centres and spreads (  5.397633,  5.397608,  5.397416 )    14.49957449

     20    -0.207E-08     0.0000366454       14.4995744855       0.70  <-- CONV
        O_D=      0.1054703 O_OD=      2.5449105 O_TOT=     14.4995745 <-- SPRD
 Delta: O_D=  0.3882505E-10 O_OD= -0.2109754E-08 O_TOT= -0.2070930E-08 <-- DLTA
 ------------------------------------------------------------------------------
 Cycle:     30
  WF centre and spread    1  ( -0.460729, -0.460707, -0.460764 )     1.81243991
  WF centre and spread    2  ( -0.460713,  0.460733,  0.460729 )     1.81246916
  WF centre and spread    3  (  0.460731, -0.460747,  0.460691 )     1.81247399
  WF centre and spread    4  (  0.460732,  0.460730, -0.460751 )     1.81243495
  WF centre and spread    5  (  1.810153,  1.810116,  1.810116 )     1.81245351
  WF centre and spread    6  (  1.810127,  0.888674,  0.888628 )     1.81241564
  WF centre and spread    7  (  0.888668,  1.810153,  0.888666 )     1.81242020
  WF centre and spread    8  (  0.888670,  0.888658,  1.810103 )     1.81246713
  Sum of centres and spreads (  5.397637,  5.397610,  5.397417 )    14.49957448

     30    -0.899E-12     0.0000050560       14.4995744827       0.79  <-- CONV
        O_D=      0.1054702 O_OD=      2.5449105 O_TOT=     14.4995745 <-- SPRD
 Delta: O_D=  0.2324345E-09 O_OD= -0.2333325E-09 O_TOT= -0.8988366E-12 <-- DLTA
 ------------------------------------------------------------------------------
 Cycle:     40
  WF centre and spread    1  ( -0.460729, -0.460707, -0.460764 )     1.81243979
  WF centre and spread    2  ( -0.460713,  0.460733,  0.460729 )     1.81246922
  WF centre and spread    3  (  0.460731, -0.460747,  0.460691 )     1.81247398
  WF centre and spread    4  (  0.460732,  0.460730, -0.460751 )     1.81243495
  WF centre and spread    5  (  1.810153,  1.810116,  1.810116 )     1.81245380
  WF centre and spread    6  (  1.810127,  0.888674,  0.888628 )     1.81241583
  WF centre and spread    7  (  0.888668,  1.810153,  0.888666 )     1.81242000
  WF centre and spread    8  (  0.888670,  0.888658,  1.810103 )     1.81246691
  Sum of centres and spreads (  5.397638,  5.397610,  5.397417 )    14.49957448

     40    -0.232E-11     0.0000015211       14.4995744827       0.87  <-- CONV
        O_D=      0.1054702 O_OD=      2.5449105 O_TOT=     14.4995745 <-- SPRD
 Delta: O_D= -0.6591113E-09 O_OD=  0.6567920E-09 O_TOT= -0.2319922E-11 <-- DLTA
 ------------------------------------------------------------------------------
 Cycle:     50
  WF centre and spread    1  ( -0.460729, -0.460707, -0.460764 )     1.81243976
  WF centre and spread    2  ( -0.460713,  0.460733,  0.460729 )     1.81246921
  WF centre and spread    3  (  0.460731, -0.460747,  0.460691 )     1.81247399
  WF centre and spread    4  (  0.460732,  0.460730, -0.460751 )     1.81243497
  WF centre and spread    5  (  1.810153,  1.810116,  1.810116 )     1.81245399
  WF centre and spread    6  (  1.810127,  0.888674,  0.888628 )     1.81241587
  WF centre and spread    7  (  0.888668,  1.810153,  0.888666 )     1.81241989
  WF centre and spread    8  (  0.888670,  0.888658,  1.810103 )     1.81246680
  Sum of centres and spreads (  5.397638,  5.397610,  5.397417 )    14.49957448

     50    -0.817E-13     0.0000008891       14.4995744827       0.95  <-- CONV
        O_D=      0.1054702 O_OD=      2.5449105 O_TOT=     14.4995745 <-- SPRD
 Delta: O_D=  0.1888728E-10 O_OD= -0.1896927E-10 O_TOT= -0.8171241E-13 <-- DLTA
 ------------------------------------------------------------------------------
 Cycle:     60
  WF centre and spread    1  ( -0.460729, -0.460707, -0.460764 )     1.81243976
  WF centre and spread    2  ( -0.460713,  0.460733,  0.460729 )     1.81246918
  WF centre and spread    3  (  0.460731, -0.460747,  0.460691 )     1.81247400
  WF centre and spread    4  (  0.460732,  0.460730, -0.460751 )     1.81243499
  WF centre and spread    5  (  1.810153,  1.810116,  1.810116 )     1.81245409
  WF centre and spread    6  (  1.810127,  0.888674,  0.888628 )     1.81241587
  WF centre and spread    7  (  0.888668,  1.810153,  0.888666 )     1.81241984
  WF centre and spread    8  (  0.888670,  0.888658,  1.810103 )     1.81246675
  Sum of centres and spreads (  5.397638,  5.397610,  5.397417 )    14.49957448

     60    -0.167E-12     0.0000007660       14.4995744827       1.02  <-- CONV
        O_D=      0.1054702 O_OD=      2.5449105 O_TOT=     14.4995745 <-- SPRD
 Delta: O_D=  0.4719974E-11 O_OD= -0.4888090E-11 O_TOT= -0.1669775E-12 <-- DLTA
 ------------------------------------------------------------------------------
 Cycle:     70
  WF centre and spread    1  ( -0.460729, -0.460707, -0.460764 )     1.81243976
  WF centre and spread    2  ( -0.460713,  0.460733,  0.460729 )     1.81246915
  WF centre and spread    3  (  0.460731, -0.460747,  0.460691 )     1.81247402
  WF centre and spread    4  (  0.460732,  0.460730, -0.460751 )     1.81243500
  WF centre and spread    5  (  1.810153,  1.810116,  1.810116 )     1.81245419
  WF centre and spread    6  (  1.810127,  0.888674,  0.888628 )     1.81241587
  WF centre and spread    7  (  0.888668,  1.810153,  0.888666 )     1.81241980
  WF centre and spread    8  (  0.888670,  0.888658,  1.810103 )     1.81246670
  Sum of centres and spreads (  5.397638,  5.397610,  5.397417 )    14.49957448

     70    -0.102E-11     0.0000007123       14.4995744827       1.10  <-- CONV
        O_D=      0.1054702 O_OD=      2.5449105 O_TOT=     14.4995745 <-- SPRD
 Delta: O_D=  0.2644607E-11 O_OD= -0.3662404E-11 O_TOT= -0.1016076E-11 <-- DLTA
 ------------------------------------------------------------------------------
 Cycle:     80
  WF centre and spread    1  ( -0.460729, -0.460707, -0.460764 )     1.81243976
  WF centre and spread    2  ( -0.460713,  0.460733,  0.460729 )     1.81246913
  WF centre and spread    3  (  0.460731, -0.460747,  0.460691 )     1.81247402
  WF centre and spread    4  (  0.460732,  0.460730, -0.460751 )     1.81243501
  WF centre and spread    5  (  1.810153,  1.810116,  1.810116 )     1.81245424
  WF centre and spread    6  (  1.810127,  0.888674,  0.888628 )     1.81241586
  WF centre and spread    7  (  0.888668,  1.810153,  0.888666 )     1.81241978
  WF centre and spread    8  (  0.888670,  0.888658,  1.810103 )     1.81246667
  Sum of centres and spreads (  5.397638,  5.397610,  5.397417 )    14.49957448

     80    -0.444E-13     0.0000006170       14.4995744827       1.17  <-- CONV
        O_D=      0.1054702 O_OD=      2.5449105 O_TOT=     14.4995745 <-- SPRD
 Delta: O_D= -0.2178951E-12 O_OD=  0.1740830E-12 O_TOT= -0.4440892E-13 <-- DLTA
 ------------------------------------------------------------------------------
 Cycle:     90
  WF centre and spread    1  ( -0.460729, -0.460707, -0.460764 )     1.81243976
  WF centre and spread    2  ( -0.460713,  0.460733,  0.460729 )     1.81246911
  WF centre and spread    3  (  0.460731, -0.460747,  0.460691 )     1.81247403
  WF centre and spread    4  (  0.460732,  0.460730, -0.460751 )     1.81243502
  WF centre and spread    5  (  1.810153,  1.810116,  1.810116 )     1.81245430
  WF centre and spread    6  (  1.810127,  0.888674,  0.888628 )     1.81241586
  WF centre and spread    7  (  0.888668,  1.810153,  0.888666 )     1.81241975
  WF centre and spread    8  (  0.888670,  0.888658,  1.810103 )     1.81246664
  Sum of centres and spreads (  5.397638,  5.397610,  5.397417 )    14.49957448

     90    -0.817E-13     0.0000005619       14.4995744826       1.25  <-- CONV
        O_D=      0.1054702 O_OD=      2.5449105 O_TOT=     14.4995745 <-- SPRD
 Delta: O_D= -0.1249001E-12 O_OD=  0.4263256E-13 O_TOT= -0.8171241E-13 <-- DLTA
 ------------------------------------------------------------------------------
 Cycle:    100
  WF centre and spread    1  ( -0.460729, -0.460707, -0.460764 )     1.81243976
  WF centre and spread    2  ( -0.460713,  0.460733,  0.460729 )     1.81246911
  WF centre and spread    3  (  0.460731, -0.460747,  0.460691 )     1.81247404
  WF centre and spread    4  (  0.460732,  0.460730, -0.460751 )     1.81243503
  WF centre and spread    5  (  1.810153,  1.810116,  1.810116 )     1.81245432
  WF centre and spread    6  (  1.810127,  0.888674,  0.888628 )     1.81241585
  WF centre and spread    7  (  0.888668,  1.810153,  0.888666 )     1.81241974
  WF centre and spread    8  (  0.888670,  0.888658,  1.810103 )     1.81246663
  Sum of centres and spreads (  5.397638,  5.397610,  5.397417 )    14.49957448

    100    -0.533E-13     0.0000005387       14.4995744826       1.33  <-- CONV
        O_D=      0.1054702 O_OD=      2.5449105 O_TOT=     14.4995745 <-- SPRD
 Delta: O_D= -0.6097900E-13 O_OD=  0.6661338E-14 O_TOT= -0.5329071E-13 <-- DLTA
 ------------------------------------------------------------------------------

 Writing checkpoint file silicon.chk... done

 Cycle:    110
  WF centre and spread    1  ( -0.460729, -0.460707, -0.460764 )     1.81243977
  WF centre and spread    2  ( -0.460713,  0.460733,  0.460729 )     1.81246909
  WF centre and spread    3  (  0.460731, -0.460747,  0.460691 )     1.81247404
  WF centre and spread    4  (  0.460732,  0.460730, -0.460751 )     1.81243503
  WF centre and spread    5  (  1.810153,  1.810116,  1.810116 )     1.81245436
  WF centre and spread    6  (  1.810127,  0.888674,  0.888628 )     1.81241585
  WF centre and spread    7  (  0.888668,  1.810153,  0.888666 )     1.81241972
  WF centre and spread    8  (  0.888670,  0.888658,  1.810103 )     1.81246662
  Sum of centres and spreads (  5.397638,  5.397610,  5.397417 )    14.49957448

    110    -0.320E-13     0.0000005024       14.4995744826       1.42  <-- CONV
        O_D=      0.1054702 O_OD=      2.5449105 O_TOT=     14.4995745 <-- SPRD
 Delta: O_D= -0.1471046E-14 O_OD= -0.3064216E-13 O_TOT= -0.3197442E-13 <-- DLTA
 ------------------------------------------------------------------------------
 Cycle:    120
  WF centre and spread    1  ( -0.460729, -0.460707, -0.460764 )     1.81243977
  WF centre and spread    2  ( -0.460713,  0.460733,  0.460729 )     1.81246908
  WF centre and spread    3  (  0.460731, -0.460747,  0.460691 )     1.81247405
  WF centre and spread    4  (  0.460732,  0.460730, -0.460751 )     1.81243504
  WF centre and spread    5  (  1.810153,  1.810116,  1.810116 )     1.81245440
  WF centre and spread    6  (  1.810126,  0.888674,  0.888628 )     1.81241584
  WF centre and spread    7  (  0.888668,  1.810153,  0.888666 )     1.81241971
  WF centre and spread    8  (  0.888670,  0.888658,  1.810103 )     1.81246660
  Sum of centres and spreads (  5.397638,  5.397610,  5.397417 )    14.49957448

    120    -0.746E-13     0.0000004711       14.4995744826       1.51  <-- CONV
        O_D=      0.1054702 O_OD=      2.5449105 O_TOT=     14.4995745 <-- SPRD
 Delta: O_D=  0.1942890E-13 O_OD= -0.9592327E-13 O_TOT= -0.7460699E-13 <-- DLTA
 ------------------------------------------------------------------------------
 Cycle:    130
  WF centre and spread    1  ( -0.460729, -0.460707, -0.460764 )     1.81243977
  WF centre and spread    2  ( -0.460713,  0.460733,  0.460729 )     1.81246907
  WF centre and spread    3  (  0.460731, -0.460747,  0.460691 )     1.81247405
  WF centre and spread    4  (  0.460732,  0.460730, -0.460751 )     1.81243504
  WF centre and spread    5  (  1.810153,  1.810116,  1.810116 )     1.81245443
  WF centre and spread    6  (  1.810126,  0.888674,  0.888628 )     1.81241584
  WF centre and spread    7  (  0.888668,  1.810154,  0.888666 )     1.81241969
  WF centre and spread    8  (  0.888670,  0.888658,  1.810103 )     1.81246659
  Sum of centres and spreads (  5.397638,  5.397610,  5.397417 )    14.49957448

    130    -0.115E-12     0.0000004459       14.4995744826       1.59  <-- CONV
        O_D=      0.1054702 O_OD=      2.5449105 O_TOT=     14.4995745 <-- SPRD
 Delta: O_D=  0.8255896E-13 O_OD= -0.1971756E-12 O_TOT= -0.1154632E-12 <-- DLTA
 ------------------------------------------------------------------------------
 Cycle:    140
  WF centre and spread    1  ( -0.460729, -0.460707, -0.460764 )     1.81243977
  WF centre and spread    2  ( -0.460713,  0.460733,  0.460729 )     1.81246906
  WF centre and spread    3  (  0.460731, -0.460747,  0.460691 )     1.81247406
  WF centre and spread    4  (  0.460732,  0.460730, -0.460751 )     1.81243505
  WF centre and spread    5  (  1.810153,  1.810116,  1.810116 )     1.81245445
  WF centre and spread    6  (  1.810126,  0.888674,  0.888628 )     1.81241584
  WF centre and spread    7  (  0.888668,  1.810154,  0.888666 )     1.81241969
  WF centre and spread    8  (  0.888670,  0.888658,  1.810103 )     1.81246658
  Sum of centres and spreads (  5.397638,  5.397610,  5.397417 )    14.49957448

    140     0.231E-13     0.0000004191       14.4995744826       1.68  <-- CONV
        O_D=      0.1054702 O_OD=      2.5449105 O_TOT=     14.4995745 <-- SPRD
 Delta: O_D=  0.6411538E-14 O_OD=  0.1687539E-13 O_TOT=  0.2309264E-13 <-- DLTA
 ------------------------------------------------------------------------------
 Cycle:    150
  WF centre and spread    1  ( -0.460729, -0.460707, -0.460764 )     1.81243977
  WF centre and spread    2  ( -0.460713,  0.460733,  0.460729 )     1.81246905
  WF centre and spread    3  (  0.460731, -0.460747,  0.460691 )     1.81247406
  WF centre and spread    4  (  0.460732,  0.460730, -0.460751 )     1.81243505
  WF centre and spread    5  (  1.810153,  1.810116,  1.810116 )     1.81245448
  WF centre and spread    6  (  1.810126,  0.888674,  0.888628 )     1.81241583
  WF centre and spread    7  (  0.888668,  1.810154,  0.888666 )     1.81241967
  WF centre and spread    8  (  0.888670,  0.888658,  1.810103 )     1.81246656
  Sum of centres and spreads (  5.397638,  5.397610,  5.397417 )    14.49957448

    150    -0.107E-12     0.0000003925       14.4995744826       1.74  <-- CONV
        O_D=      0.1054702 O_OD=      2.5449105 O_TOT=     14.4995745 <-- SPRD
 Delta: O_D=  0.1547096E-12 O_OD= -0.2615685E-12 O_TOT= -0.1065814E-12 <-- DLTA
 ------------------------------------------------------------------------------
 Cycle:    160
  WF centre and spread    1  ( -0.460729, -0.460707, -0.460764 )     1.81243977
  WF centre and spread    2  ( -0.460713,  0.460733,  0.460729 )     1.81246905
  WF centre and spread    3  (  0.460731, -0.460747,  0.460691 )     1.81247406
  WF centre and spread    4  (  0.460732,  0.460730, -0.460751 )     1.81243506
  WF centre and spread    5  (  1.810153,  1.810116,  1.810116 )     1.81245449
  WF centre and spread    6  (  1.810126,  0.888674,  0.888628 )     1.81241583
  WF centre and spread    7  (  0.888668,  1.810154,  0.888666 )     1.81241967
  WF centre and spread    8  (  0.888670,  0.888658,  1.810103 )     1.81246656
  Sum of centres and spreads (  5.397638,  5.397610,  5.397417 )    14.49957448

    160    -0.426E-13     0.0000003742       14.4995744826       1.82  <-- CONV
        O_D=      0.1054702 O_OD=      2.5449105 O_TOT=     14.4995745 <-- SPRD
 Delta: O_D=  0.3418099E-13 O_OD= -0.7727152E-13 O_TOT= -0.4263256E-13 <-- DLTA
 ------------------------------------------------------------------------------
 Cycle:    170
  WF centre and spread    1  ( -0.460729, -0.460707, -0.460764 )     1.81243977
  WF centre and spread    2  ( -0.460713,  0.460733,  0.460729 )     1.81246904
  WF centre and spread    3  (  0.460731, -0.460747,  0.460691 )     1.81247406
  WF centre and spread    4  (  0.460732,  0.460730, -0.460751 )     1.81243506
  WF centre and spread    5  (  1.810153,  1.810116,  1.810116 )     1.81245450
  WF centre and spread    6  (  1.810126,  0.888674,  0.888628 )     1.81241583
  WF centre and spread    7  (  0.888668,  1.810154,  0.888666 )     1.81241966
  WF centre and spread    8  (  0.888670,  0.888658,  1.810103 )     1.81246655
  Sum of centres and spreads (  5.397638,  5.397610,  5.397417 )    14.49957448

    170     0.533E-14     0.0000003578       14.4995744826       1.90  <-- CONV
        O_D=      0.1054702 O_OD=      2.5449105 O_TOT=     14.4995745 <-- SPRD
 Delta: O_D=  0.8520962E-14 O_OD= -0.4440892E-14 O_TOT=  0.5329071E-14 <-- DLTA
 ------------------------------------------------------------------------------
 Cycle:    180
  WF centre and spread    1  ( -0.460729, -0.460707, -0.460764 )     1.81243977
  WF centre and spread    2  ( -0.460713,  0.460733,  0.460729 )     1.81246903
  WF centre and spread    3  (  0.460731, -0.460747,  0.460691 )     1.81247407
  WF centre and spread    4  (  0.460732,  0.460730, -0.460751 )     1.81243506
  WF centre and spread    5  (  1.810153,  1.810116,  1.810116 )     1.81245452
  WF centre and spread    6  (  1.810126,  0.888674,  0.888628 )     1.81241582
  WF centre and spread    7  (  0.888668,  1.810154,  0.888666 )     1.81241966
  WF centre and spread    8  (  0.888670,  0.888658,  1.810103 )     1.81246655
  Sum of centres and spreads (  5.397638,  5.397610,  5.397417 )    14.49957448

    180    -0.391E-13     0.0000003437       14.4995744826       1.98  <-- CONV
        O_D=      0.1054702 O_OD=      2.5449105 O_TOT=     14.4995745 <-- SPRD
 Delta: O_D=  0.5662137E-13 O_OD= -0.9592327E-13 O_TOT= -0.3907985E-13 <-- DLTA
 ------------------------------------------------------------------------------
 Cycle:    190
  WF centre and spread    1  ( -0.460729, -0.460707, -0.460764 )     1.81243978
  WF centre and spread    2  ( -0.460713,  0.460733,  0.460729 )     1.81246903
  WF centre and spread    3  (  0.460731, -0.460747,  0.460691 )     1.81247407
  WF centre and spread    4  (  0.460732,  0.460730, -0.460751 )     1.81243506
  WF centre and spread    5  (  1.810153,  1.810116,  1.810116 )     1.81245453
  WF centre and spread    6  (  1.810126,  0.888674,  0.888628 )     1.81241582
  WF centre and spread    7  (  0.888668,  1.810154,  0.888666 )     1.81241965
  WF centre and spread    8  (  0.888670,  0.888658,  1.810103 )     1.81246654
  Sum of centres and spreads (  5.397638,  5.397610,  5.397417 )    14.49957448

    190    -0.355E-13     0.0000003320       14.4995744826       2.05  <-- CONV
        O_D=      0.1054702 O_OD=      2.5449105 O_TOT=     14.4995745 <-- SPRD
 Delta: O_D=  0.5596912E-13 O_OD= -0.9148238E-13 O_TOT= -0.3552714E-13 <-- DLTA
 ------------------------------------------------------------------------------
 Cycle:    200
  WF centre and spread    1  ( -0.460729, -0.460707, -0.460764 )     1.81243978
  WF centre and spread    2  ( -0.460713,  0.460733,  0.460729 )     1.81246903
  WF centre and spread    3  (  0.460731, -0.460747,  0.460691 )     1.81247407
  WF centre and spread    4  (  0.460732,  0.460730, -0.460751 )     1.81243507
  WF centre and spread    5  (  1.810153,  1.810116,  1.810116 )     1.81245454
  WF centre and spread    6  (  1.810126,  0.888674,  0.888628 )     1.81241582
  WF centre and spread    7  (  0.888668,  1.810154,  0.888666 )     1.81241965
  WF centre and spread    8  (  0.888670,  0.888658,  1.810103 )     1.81246654
  Sum of centres and spreads (  5.397638,  5.397610,  5.397417 )    14.49957448

    200    -0.551E-13     0.0000003153       14.4995744826       2.13  <-- CONV
        O_D=      0.1054702 O_OD=      2.5449105 O_TOT=     14.4995745 <-- SPRD
 Delta: O_D=  0.1798561E-13 O_OD= -0.7416290E-13 O_TOT= -0.5506706E-13 <-- DLTA
 ------------------------------------------------------------------------------

 Writing checkpoint file silicon.chk... done

 Cycle:    210
  WF centre and spread    1  ( -0.460729, -0.460707, -0.460764 )     1.81243978
  WF centre and spread    2  ( -0.460713,  0.460733,  0.460729 )     1.81246902
  WF centre and spread    3  (  0.460731, -0.460747,  0.460691 )     1.81247407
  WF centre and spread    4  (  0.460732,  0.460730, -0.460751 )     1.81243507
  WF centre and spread    5  (  1.810153,  1.810116,  1.810116 )     1.81245456
  WF centre and spread    6  (  1.810126,  0.888674,  0.888628 )     1.81241582
  WF centre and spread    7  (  0.888668,  1.810154,  0.888666 )     1.81241964
  WF centre and spread    8  (  0.888670,  0.888658,  1.810103 )     1.81246653
  Sum of centres and spreads (  5.397638,  5.397610,  5.397417 )    14.49957448

    210    -0.355E-13     0.0000003026       14.4995744826       2.21  <-- CONV
        O_D=      0.1054702 O_OD=      2.5449105 O_TOT=     14.4995745 <-- SPRD
 Delta: O_D=  0.5238865E-13 O_OD= -0.8926193E-13 O_TOT= -0.3552714E-13 <-- DLTA
 ------------------------------------------------------------------------------
 Cycle:    220
  WF centre and spread    1  ( -0.460729, -0.460707, -0.460764 )     1.81243978
  WF centre and spread    2  ( -0.460713,  0.460733,  0.460729 )     1.81246902
  WF centre and spread    3  (  0.460731, -0.460747,  0.460691 )     1.81247407
  WF centre and spread    4  (  0.460732,  0.460730, -0.460751 )     1.81243507
  WF centre and spread    5  (  1.810153,  1.810116,  1.810116 )     1.81245456
  WF centre and spread    6  (  1.810126,  0.888674,  0.888628 )     1.81241582
  WF centre and spread    7  (  0.888668,  1.810154,  0.888666 )     1.81241964
  WF centre and spread    8  (  0.888670,  0.888658,  1.810103 )     1.81246653
  Sum of centres and spreads (  5.397638,  5.397610,  5.397417 )    14.49957448

    220    -0.213E-13     0.0000002938       14.4995744826       2.29  <-- CONV
        O_D=      0.1054702 O_OD=      2.5449105 O_TOT=     14.4995745 <-- SPRD
 Delta: O_D=  0.3423650E-13 O_OD= -0.5506706E-13 O_TOT= -0.2131628E-13 <-- DLTA
 ------------------------------------------------------------------------------
 Cycle:    230
  WF centre and spread    1  ( -0.460729, -0.460707, -0.460764 )     1.81243978
  WF centre and spread    2  ( -0.460713,  0.460733,  0.460729 )     1.81246902
  WF centre and spread    3  (  0.460731, -0.460747,  0.460691 )     1.81247407
  WF centre and spread    4  (  0.460732,  0.460730, -0.460751 )     1.81243507
  WF centre and spread    5  (  1.810153,  1.810116,  1.810116 )     1.81245457
  WF centre and spread    6  (  1.810126,  0.888674,  0.888628 )     1.81241582
  WF centre and spread    7  (  0.888668,  1.810154,  0.888666 )     1.81241964
  WF centre and spread    8  (  0.888670,  0.888658,  1.810103 )     1.81246652
  Sum of centres and spreads (  5.397638,  5.397610,  5.397417 )    14.49957448

    230     0.266E-13     0.0000002846       14.4995744826       2.37  <-- CONV
        O_D=      0.1054702 O_OD=      2.5449105 O_TOT=     14.4995745 <-- SPRD
 Delta: O_D=  0.1956768E-14 O_OD=  0.2575717E-13 O_TOT=  0.2664535E-13 <-- DLTA
 ------------------------------------------------------------------------------
 Cycle:    240
  WF centre and spread    1  ( -0.460729, -0.460707, -0.460764 )     1.81243978
  WF centre and spread    2  ( -0.460713,  0.460733,  0.460729 )     1.81246901
  WF centre and spread    3  (  0.460731, -0.460747,  0.460691 )     1.81247407
  WF centre and spread    4  (  0.460732,  0.460730, -0.460751 )     1.81243507
  WF centre and spread    5  (  1.810153,  1.810116,  1.810116 )     1.81245458
  WF centre and spread    6  (  1.810126,  0.888674,  0.888628 )     1.81241581
  WF centre and spread    7  (  0.888668,  1.810154,  0.888666 )     1.81241963
  WF centre and spread    8  (  0.888670,  0.888658,  1.810103 )     1.81246652
  Sum of centres and spreads (  5.397638,  5.397610,  5.397417 )    14.49957448

    240     0.000E+00     0.0000002723       14.4995744826       2.44  <-- CONV
        O_D=      0.1054702 O_OD=      2.5449105 O_TOT=     14.4995745 <-- SPRD
 Delta: O_D=  0.1854072E-13 O_OD= -0.1998401E-13 O_TOT=  0.0000000E+00 <-- DLTA
 ------------------------------------------------------------------------------
 Cycle:    250
  WF centre and spread    1  ( -0.460729, -0.460707, -0.460764 )     1.81243978
  WF centre and spread    2  ( -0.460713,  0.460733,  0.460729 )     1.81246901
  WF centre and spread    3  (  0.460731, -0.460747,  0.460691 )     1.81247408
  WF centre and spread    4  (  0.460732,  0.460730, -0.460751 )     1.81243507
  WF centre and spread    5  (  1.810153,  1.810116,  1.810116 )     1.81245458
  WF centre and spread    6  (  1.810126,  0.888674,  0.888628 )     1.81241581
  WF centre and spread    7  (  0.888668,  1.810154,  0.888666 )     1.81241963
  WF centre and spread    8  (  0.888670,  0.888658,  1.810103 )     1.81246652
  Sum of centres and spreads (  5.397638,  5.397610,  5.397417 )    14.49957448

    250     0.195E-13     0.0000002650       14.4995744826       2.52  <-- CONV
        O_D=      0.1054702 O_OD=      2.5449105 O_TOT=     14.4995745 <-- SPRD
 Delta: O_D=  0.6564194E-14 O_OD=  0.1376677E-13 O_TOT=  0.1953993E-13 <-- DLTA
 ------------------------------------------------------------------------------
 Cycle:    260
  WF centre and spread    1  ( -0.460729, -0.460707, -0.460764 )     1.81243978
  WF centre and spread    2  ( -0.460713,  0.460733,  0.460729 )     1.81246901
  WF centre and spread    3  (  0.460731, -0.460747,  0.460691 )     1.81247408
  WF centre and spread    4  (  0.460732,  0.460730, -0.460751 )     1.81243507
  WF centre and spread    5  (  1.810153,  1.810116,  1.810116 )     1.81245459
  WF centre and spread    6  (  1.810126,  0.888674,  0.888628 )     1.81241581
  WF centre and spread    7  (  0.888668,  1.810154,  0.888666 )     1.81241963
  WF centre and spread    8  (  0.888670,  0.888658,  1.810103 )     1.81246651
  Sum of centres and spreads (  5.397638,  5.397610,  5.397417 )    14.49957448

    260    -0.373E-13     0.0000002561       14.4995744826       2.58  <-- CONV
        O_D=      0.1054702 O_OD=      2.5449105 O_TOT=     14.4995745 <-- SPRD
 Delta: O_D=  0.1551537E-13 O_OD= -0.5240253E-13 O_TOT= -0.3730349E-13 <-- DLTA
 ------------------------------------------------------------------------------
 Cycle:    270
  WF centre and spread    1  ( -0.460729, -0.460707, -0.460764 )     1.81243978
  WF centre and spread    2  ( -0.460713,  0.460733,  0.460729 )     1.81246901
  WF centre and spread    3  (  0.460731, -0.460747,  0.460691 )     1.81247408
  WF centre and spread    4  (  0.460732,  0.460730, -0.460751 )     1.81243508
  WF centre and spread    5  (  1.810153,  1.810116,  1.810116 )     1.81245460
  WF centre and spread    6  (  1.810126,  0.888674,  0.888628 )     1.81241581
  WF centre and spread    7  (  0.888668,  1.810154,  0.888666 )     1.81241962
  WF centre and spread    8  (  0.888670,  0.888658,  1.810103 )     1.81246651
  Sum of centres and spreads (  5.397638,  5.397610,  5.397417 )    14.49957448

    270     0.266E-13     0.0000002495       14.4995744826       2.67  <-- CONV
        O_D=      0.1054702 O_OD=      2.5449105 O_TOT=     14.4995745 <-- SPRD
 Delta: O_D=  0.1521006E-13 O_OD=  0.1243450E-13 O_TOT=  0.2664535E-13 <-- DLTA
 ------------------------------------------------------------------------------
 Cycle:    280
  WF centre and spread    1  ( -0.460729, -0.460707, -0.460764 )     1.81243978
  WF centre and spread    2  ( -0.460713,  0.460733,  0.460729 )     1.81246900
  WF centre and spread    3  (  0.460731, -0.460747,  0.460691 )     1.81247408
  WF centre and spread    4  (  0.460732,  0.460730, -0.460751 )     1.81243508
  WF centre and spread    5  (  1.810153,  1.810116,  1.810116 )     1.81245460
  WF centre and spread    6  (  1.810126,  0.888674,  0.888628 )     1.81241581
  WF centre and spread    7  (  0.888668,  1.810154,  0.888666 )     1.81241962
  WF centre and spread    8  (  0.888670,  0.888658,  1.810103 )     1.81246651
  Sum of centres and spreads (  5.397638,  5.397610,  5.397417 )    14.49957448

    280    -0.320E-13     0.0000002434       14.4995744826       2.74  <-- CONV
        O_D=      0.1054702 O_OD=      2.5449105 O_TOT=     14.4995745 <-- SPRD
 Delta: O_D=  0.2879641E-13 O_OD= -0.6084022E-13 O_TOT= -0.3197442E-13 <-- DLTA
 ------------------------------------------------------------------------------
 Cycle:    290
  WF centre and spread    1  ( -0.460729, -0.460707, -0.460764 )     1.81243978
  WF centre and spread    2  ( -0.460713,  0.460733,  0.460729 )     1.81246900
  WF centre and spread    3  (  0.460731, -0.460747,  0.460691 )     1.81247408
  WF centre and spread    4  (  0.460732,  0.460730, -0.460751 )     1.81243508
  WF centre and spread    5  (  1.810153,  1.810116,  1.810116 )     1.81245461
  WF centre and spread    6  (  1.810126,  0.888674,  0.888628 )     1.81241581
  WF centre and spread    7  (  0.888668,  1.810154,  0.888666 )     1.81241962
  WF centre and spread    8  (  0.888670,  0.888658,  1.810103 )     1.81246651
  Sum of centres and spreads (  5.397638,  5.397610,  5.397417 )    14.49957448

    290     0.888E-14     0.0000002361       14.4995744826       2.82  <-- CONV
        O_D=      0.1054702 O_OD=      2.5449105 O_TOT=     14.4995745 <-- SPRD
 Delta: O_D=  0.2109424E-14 O_OD=  0.6661338E-14 O_TOT=  0.8881784E-14 <-- DLTA
 ------------------------------------------------------------------------------
 Cycle:    300
  WF centre and spread    1  ( -0.460729, -0.460707, -0.460764 )     1.81243978
  WF centre and spread    2  ( -0.460713,  0.460733,  0.460729 )     1.81246900
  WF centre and spread    3  (  0.460731, -0.460747,  0.460691 )     1.81247408
  WF centre and spread    4  (  0.460732,  0.460730, -0.460751 )     1.81243508
  WF centre and spread    5  (  1.810153,  1.810116,  1.810116 )     1.81245461
  WF centre and spread    6  (  1.810126,  0.888674,  0.888628 )     1.81241581
  WF centre and spread    7  (  0.888668,  1.810154,  0.888666 )     1.81241962
  WF centre and spread    8  (  0.888670,  0.888658,  1.810103 )     1.81246650
  Sum of centres and spreads (  5.397638,  5.397610,  5.397417 )    14.49957448

    300    -0.888E-14     0.0000002283       14.4995744826       2.89  <-- CONV
        O_D=      0.1054702 O_OD=      2.5449105 O_TOT=     14.4995745 <-- SPRD
 Delta: O_D=  0.2023381E-13 O_OD= -0.2797762E-13 O_TOT= -0.8881784E-14 <-- DLTA
 ------------------------------------------------------------------------------

 Writing checkpoint file silicon.chk... done

 Final State
  WF centre and spread    1  ( -0.460729, -0.460707, -0.460764 )     1.81243978
  WF centre and spread    2  ( -0.460713,  0.460733,  0.460729 )     1.81246900
  WF centre and spread    3  (  0.460731, -0.460747,  0.460691 )     1.81247408
  WF centre and spread    4  (  0.460732,  0.460730, -0.460751 )     1.81243508
  WF centre and spread    5  (  1.810153,  1.810116,  1.810116 )     1.81245461
  WF centre and spread    6  (  1.810126,  0.888674,  0.888628 )     1.81241581
  WF centre and spread    7  (  0.888668,  1.810154,  0.888666 )     1.81241962
  WF centre and spread    8  (  0.888670,  0.888658,  1.810103 )     1.81246650
  Sum of centres and spreads (  5.397638,  5.397610,  5.397417 )    14.49957448

         Spreads (Ang^2)       Omega I      =    11.849193700
        ================       Omega D      =     0.105470244
                               Omega OD     =     2.544910539
    Final Spread (Ang^2)       Omega Total  =    14.499574483
 ------------------------------------------------------------------------------
 Time for wannierise            2.384 (sec)

 Writing checkpoint file silicon.chk... done

 Total Execution Time           2.892 (sec)

 *===========================================================================*
 |                             TIMING INFORMATION                            |
 *===========================================================================*
 |    Tag                                                Ncalls      Time (s)|
 |---------------------------------------------------------------------------|
 |kmesh: get                                        :         1         0.100|
 |overlap: read                                     :         1         0.076|
 |dis: main                                         :         1         0.320|
 |wann: main                                        :         1         2.384|
 *---------------------------------------------------------------------------*

 All done: wannier90 exiting
