
     Program PWSCF v.6.beta (svn rev. 12957) starts on 14Sep2016 at 13:44:22 

     This program is part of the open-source Quantum ESPRESSO suite
     for quantum simulation of materials; please cite
         "P. Giannozzi et al., J. Phys.:Condens. Matter 21 395502 (2009);
          URL http://www.quantum-espresso.org", 
     in publications or presentations arising from this work. More details at
     http://www.quantum-espresso.org/quote

           HOST :    @host@
           ARCH :    x86_64
             CC :    cc
            CPP :    cpp
            F90 :    mpif90
            F77 :    gfortran
         DFLAGS :    -D__GFORTRAN -D__STD_F95 -D__FFTW -D__MPI
      BLAS LIBS :    
    LAPACK LIBS :    $(TOPDIR)/LAPACK/liblapack.a $(TOPDIR)/LAPACK/libblas.a
       FFT LIBS :    
      MASS LIBS :    

     Parallel version (MPI), running on     1 processors
     Waiting for input...
     Reading input from standard input
     Message from routine read_cards :
     DEPRECATED: no units specified in ATOMIC_POSITIONS card
     Message from routine read_cards :
     ATOMIC_POSITIONS: units set to alat

     Current dimensions of program PWSCF are:
     Max number of different atomic species (ntypx) = 10
     Max number of k-points (npk) =  40000
     Max angular momentum in pseudopotentials (lmaxx) =  3

     Subspace diagonalization in iterative solution of the eigenvalue problem:
     a serial algorithm will be used


     G-vector sticks info
     --------------------
     sticks:   dense  smooth     PW     G-vecs:    dense   smooth      PW
     Sum         199     199     73                 1807     1807     411



     bravais-lattice index     =            2
     lattice parameter (alat)  =       6.8220  a.u.
     unit-cell volume          =      79.3734 (a.u.)^3
     number of atoms/cell      =            1
     number of atomic types    =            1
     number of electrons       =        11.00
     number of Kohn-Sham states=           10
     kinetic-energy cutoff     =      30.0000  Ry
     charge density cutoff     =     120.0000  Ry
     convergence threshold     =      1.0E-09
     mixing beta               =       0.7000
     number of iterations used =            8  plain     mixing
     Exchange-correlation      =  SLA  PZ   NOGX NOGC ( 1  1  0  0 0 0)

     celldm(1)=   6.822000  celldm(2)=   0.000000  celldm(3)=   0.000000
     celldm(4)=   0.000000  celldm(5)=   0.000000  celldm(6)=   0.000000

     crystal axes: (cart. coord. in units of alat)
               a(1) = (  -0.500000   0.000000   0.500000 )  
               a(2) = (   0.000000   0.500000   0.500000 )  
               a(3) = (  -0.500000   0.500000   0.000000 )  

     reciprocal axes: (cart. coord. in units 2 pi/alat)
               b(1) = ( -1.000000 -1.000000  1.000000 )  
               b(2) = (  1.000000  1.000000  1.000000 )  
               b(3) = ( -1.000000  1.000000 -1.000000 )  


     PseudoPot. # 1 for Cu read from file:
     ../../pseudo/Cu.pz-n-van_ak.UPF
     MD5 check sum: d235ad3acf3125f396d1641db3965603
     Pseudo is Ultrasoft + core correction, Zval = 11.0
     Generated by new atomic code, or converted to UPF format
     Using radial grid of  867 points,  6 beta functions with: 
                l(1) =   0
                l(2) =   0
                l(3) =   1
                l(4) =   1
                l(5) =   2
                l(6) =   2
     Q(r) pseudized with  8 coefficients,  rinner =    1.400   1.400   1.400
                                                       1.400   1.400

     atomic species   valence    mass     pseudopotential
        Cu            11.00    63.54600     Cu( 1.00)

     48 Sym. Ops., with inversion, found



   Cartesian axes

     site n.     atom                  positions (alat units)
         1           Cu  tau(   1) = (   0.0000000   0.0000000   0.0000000  )

     number of k points=   145  Marzari-Vanderbilt smearing, width (Ry)=  0.0200

     Number of k-points >= 100: set verbosity='high' to print them.

     Dense  grid:     1807 G-vectors     FFT dimensions: (  18,  18,  18)

     Estimated max dynamical RAM per process >       6.09Mb

     Initial potential from superposition of free atoms

     starting charge   10.99145, renormalised to   11.00000
     Starting wfc are    9 randomized atomic wfcs +    1 random wfc

     total cpu time spent up to now is        0.6 secs

     per-process dynamical memory:    11.1 Mb

     Self-consistent Calculation

     iteration #  1     ecut=    30.00 Ry     beta=0.70
     CG style diagonalization
     ethr =  1.00E-02,  avg # of iterations =  3.3

     total cpu time spent up to now is        1.7 secs

     total energy              =    -121.03080829 Ry
     Harris-Foulkes estimate   =    -121.14741584 Ry
     estimated scf accuracy    <       0.14343587 Ry

     iteration #  2     ecut=    30.00 Ry     beta=0.70
     CG style diagonalization
     ethr =  1.30E-03,  avg # of iterations =  3.6

     total cpu time spent up to now is        2.9 secs

     total energy              =    -121.04734526 Ry
     Harris-Foulkes estimate   =    -121.23095060 Ry
     estimated scf accuracy    <       0.45950931 Ry

     iteration #  3     ecut=    30.00 Ry     beta=0.70
     CG style diagonalization
     ethr =  1.30E-03,  avg # of iterations =  3.5

     total cpu time spent up to now is        4.1 secs

     total energy              =    -121.12089522 Ry
     Harris-Foulkes estimate   =    -121.12091901 Ry
     estimated scf accuracy    <       0.00005214 Ry

     iteration #  4     ecut=    30.00 Ry     beta=0.70
     CG style diagonalization
     c_bands:  1 eigenvalues not converged
     ethr =  4.74E-07,  avg # of iterations =  5.9

     total cpu time spent up to now is        6.0 secs

     total energy              =    -121.12121399 Ry
     Harris-Foulkes estimate   =    -121.12142544 Ry
     estimated scf accuracy    <       0.00042305 Ry

     iteration #  5     ecut=    30.00 Ry     beta=0.70
     CG style diagonalization
     ethr =  4.74E-07,  avg # of iterations =  3.6

     total cpu time spent up to now is        7.2 secs

     total energy              =    -121.12131353 Ry
     Harris-Foulkes estimate   =    -121.12134652 Ry
     estimated scf accuracy    <       0.00007210 Ry

     iteration #  6     ecut=    30.00 Ry     beta=0.70
     CG style diagonalization
     ethr =  4.74E-07,  avg # of iterations =  3.4

     total cpu time spent up to now is        8.3 secs

     total energy              =    -121.12133335 Ry
     Harris-Foulkes estimate   =    -121.12133704 Ry
     estimated scf accuracy    <       0.00001195 Ry

     iteration #  7     ecut=    30.00 Ry     beta=0.70
     CG style diagonalization
     ethr =  1.09E-07,  avg # of iterations =  3.0

     total cpu time spent up to now is        9.4 secs

     total energy              =    -121.12133534 Ry
     Harris-Foulkes estimate   =    -121.12133533 Ry
     estimated scf accuracy    <       0.00000003 Ry

     iteration #  8     ecut=    30.00 Ry     beta=0.70
     CG style diagonalization
     ethr =  2.74E-10,  avg # of iterations =  4.1

     total cpu time spent up to now is       10.7 secs

     total energy              =    -121.12133544 Ry
     Harris-Foulkes estimate   =    -121.12133548 Ry
     estimated scf accuracy    <       0.00000015 Ry

     iteration #  9     ecut=    30.00 Ry     beta=0.70
     CG style diagonalization
     ethr =  2.74E-10,  avg # of iterations =  3.5

     total cpu time spent up to now is       11.9 secs

     total energy              =    -121.12133546 Ry
     Harris-Foulkes estimate   =    -121.12133546 Ry
     estimated scf accuracy    <          8.0E-09 Ry

     iteration # 10     ecut=    30.00 Ry     beta=0.70
     CG style diagonalization
     ethr =  7.31E-11,  avg # of iterations =  3.1

     total cpu time spent up to now is       12.9 secs

     total energy              =    -121.12133546 Ry
     Harris-Foulkes estimate   =    -121.12133546 Ry
     estimated scf accuracy    <          3.1E-09 Ry

     iteration # 11     ecut=    30.00 Ry     beta=0.70
     CG style diagonalization
     ethr =  2.78E-11,  avg # of iterations =  3.1

     total cpu time spent up to now is       14.0 secs

     End of self-consistent calculation

     Number of k-points >= 100: set verbosity='high' to print the bands.

     the Fermi energy is    12.2101 ev

!    total energy              =    -121.12133546 Ry
     Harris-Foulkes estimate   =    -121.12133546 Ry
     estimated scf accuracy    <          8.7E-10 Ry

     The total energy is the sum of the following terms:

     one-electron contribution =     -28.60556450 Ry
     hartree contribution      =      30.86933727 Ry
     xc contribution           =     -42.06471036 Ry
     ewald contribution        =     -81.32047950 Ry
     smearing contrib. (-TS)   =       0.00008164 Ry

     convergence has been achieved in  11 iterations

     Writing output data file cu.save

     init_run     :      1.07s CPU      0.54s WALL (       1 calls)
     electrons    :     26.38s CPU     13.42s WALL (       1 calls)

     Called by init_run:
     wfcinit      :      0.58s CPU      0.29s WALL (       1 calls)
     potinit      :      0.00s CPU      0.00s WALL (       1 calls)

     Called by electrons:
     c_bands      :     23.23s CPU     11.82s WALL (      11 calls)
     sum_band     :      3.06s CPU      1.55s WALL (      11 calls)
     v_of_rho     :      0.02s CPU      0.01s WALL (      12 calls)
     newd         :      0.08s CPU      0.04s WALL (      12 calls)
     mix_rho      :      0.00s CPU      0.00s WALL (      11 calls)

     Called by c_bands:
     init_us_2    :      0.51s CPU      0.24s WALL (    3335 calls)
     ccgdiagg     :     17.59s CPU      8.96s WALL (    1595 calls)
     wfcrot       :      5.89s CPU      2.99s WALL (    1595 calls)

     Called by sum_band:
     sum_band:bec :      0.02s CPU      0.01s WALL (    1595 calls)
     addusdens    :      0.09s CPU      0.04s WALL (      11 calls)

     Called by *cgdiagg:
     h_psi        :     20.26s CPU     10.31s WALL (   45538 calls)
     s_psi        :      1.05s CPU      0.58s WALL (   89481 calls)
     cdiaghg      :      0.08s CPU      0.05s WALL (    1595 calls)

     Called by h_psi:
     h_psi:pot    :     20.18s CPU     10.26s WALL (   45538 calls)
     h_psi:calbec :      0.78s CPU      0.39s WALL (   45538 calls)
     add_vuspsi   :      0.64s CPU      0.33s WALL (   45538 calls)
     h_1psi       :     15.57s CPU      7.97s WALL (   43943 calls)

     General routines
     calbec       :      1.39s CPU      0.70s WALL (   91076 calls)
     fft          :      0.02s CPU      0.01s WALL (      71 calls)
     fftw         :     19.88s CPU     10.14s WALL (  135736 calls)
     davcio       :      0.00s CPU      0.00s WALL (     145 calls)

     Parallel routines
     fft_scatter  :      0.90s CPU      0.40s WALL (  135807 calls)

     PWSCF        :    27.80s CPU        14.14s WALL


   This run was terminated on:  13:44:36  14Sep2016            

=------------------------------------------------------------------------------=
   JOB DONE.
=------------------------------------------------------------------------------=
