
             +---------------------------------------------------+
             |                                                   |
             |                   WANNIER90                       |
             |                                                   |
             +---------------------------------------------------+
             |                                                   |
             |        Welcome to the Maximally-Localized         |
             |        Generalized Wannier Functions code         |
             |            http://www.wannier.org                 |
             |                                                   |
             |  Wannier90 v2.0 Authors:                          |
             |    Arash A. Mostofi  (Imperial College London)    |
             |    Giovanni Pizzi    (EPFL)                       |
             |    Ivo Souza         (Universidad del Pais Vasco) |
             |    Jonathan R. Yates (University of Oxford)       |
             |                                                   |
             |  Wannier90 Contributors:                          |
             |    Young-Su Lee       (KIST, S. Korea)            |
             |    Matthew Shelley    (Imperial College London)   |
             |    Nicolas Poilvert   (Penn State University)     |
             |    Raffaello Bianco   (Paris 6 and CNRS)          |
             |    Gabriele Sclauzero (ETH Zurich)                |
             |                                                   |
             |  Wannier77 Authors:                               |
             |    Nicola Marzari    (EPFL)                       |
             |    Ivo Souza         (Universidad del Pais Vasco) |
             |    David Vanderbilt  (Rutgers University)         |
             |                                                   |
             |  Please cite                                      |
             |                                                   |
             |  [ref] "Wannier90: A Tool for Obtaining Maximally |
             |         Localised Wannier Functions"              |
             |        A. A. Mostofi, J. R. Yates, Y.-S. Lee,     |
             |        I. Souza, D. Vanderbilt and N. Marzari     |
             |        Comput. Phys. Commun. 178, 685 (2008)      |
             |                                                   |
             |  in any publications arising from the use of      |
             |  this code. For the method please cite            |
             |                                                   |
             |  [ref] "Maximally Localized Generalised Wannier   |
             |         Functions for Composite Energy Bands"     |
             |         N. Marzari and D. Vanderbilt              |
             |         Phys. Rev. B 56 12847 (1997)              |
             |                                                   |
             |  [ref] "Maximally Localized Wannier Functions     |
             |         for Entangled Energy Bands"               |
             |         I. Souza, N. Marzari and D. Vanderbilt    |
             |         Phys. Rev. B 65 035109 (2001)             |
             |                                                   |
             |                                                   |
             | Copyright (c) 1996-2015                           |
             |        Arash A. Mostofi, Jonathan R. Yates,       |
             |        Young-Su Lee, Giovanni Pizzi, Ivo Souza,   |
             |        David Vanderbilt and Nicola Marzari        |
             |                                                   |
             |        Release: 2.0.1   2nd April 2015            |
             |                                                   |
             | This program is free software; you can            |
             | redistribute it and/or modify it under the terms  |
             | of the GNU General Public License as published by |
             | the Free Software Foundation; either version 2 of |
             | the License, or (at your option) any later version|
             |                                                   |
             | This program is distributed in the hope that it   |
             | will be useful, but WITHOUT ANY WARRANTY; without |
             | even the implied warranty of MERCHANTABILITY or   |
             | FITNESS FOR A PARTICULAR PURPOSE. See the GNU     |
             | General Public License for more details.          |
             |                                                   |
             | You should have received a copy of the GNU General|
             | Public License along with this program; if not,   |
             | write to the Free Software Foundation, Inc.,      |
             | 675 Mass Ave, Cambridge, MA 02139, USA.           |
             |                                                   |
             +---------------------------------------------------+
             |    Execution started on 14Sep2016 at 13:47:20     |
             +---------------------------------------------------+
 
 ******************************************************************************
 * -> Using CODATA 2006 constant values                                       *
 *    (http://physics.nist.gov/cuu/Constants/index.html)                      *
 * -> Using Bohr value from CODATA                                            *
 ******************************************************************************
 

                                    ------
                                    SYSTEM
                                    ------

                              Lattice Vectors (Ang)
                    a_1    -1.805023   0.000000   1.805023
                    a_2     0.000000   1.805023   1.805023
                    a_3    -1.805023   1.805023   0.000000

                   Unit Cell Volume:      11.76193  (Ang^3)

                        Reciprocal-Space Vectors (Ang^-1)
                    b_1    -1.740472  -1.740472   1.740472
                    b_2     1.740472   1.740472   1.740472
                    b_3    -1.740472   1.740472  -1.740472
  
 *----------------------------------------------------------------------------*
 |   Site       Fractional Coordinate          Cartesian Coordinate (Ang)     |
 +----------------------------------------------------------------------------+
 | Cu   1   0.00000   0.00000   0.00000   |    0.00000   0.00000   0.00000    |
 *----------------------------------------------------------------------------*
  
                                ------------
                                K-POINT GRID
                                ------------
  
             Grid size =  4 x  4 x  4      Total points =   64
  
  
 *---------------------------------- MAIN ------------------------------------*
 |  Number of Wannier Functions               :                 7             |
 |  Number of input Bloch states              :                12             |
 |  Output verbosity (1=low, 5=high)          :                 1             |
 |  Timing Level (1=low, 5=high)              :                 1             |
 |  Optimisation (0=memory, 3=speed)          :                 3             |
 |  Length Unit                               :               Ang             |
 |  Post-processing setup (write *.nnkp)      :                 F             |
 |  Using Gamma-only branch of algorithms     :                 F             |
 *----------------------------------------------------------------------------*
 *------------------------------- WANNIERISE ---------------------------------*
 |  Total number of iterations                :               200             |
 |  Number of CG steps before reset           :                 5             |
 |  Trial step length for line search         :             2.000             |
 |  Convergence tolerence                     :         0.100E-09             |
 |  Convergence window                        :                -1             |
 |  Iterations between writing output         :                 1             |
 |  Iterations between backing up to disk     :               100             |
 |  Write r^2_nm to file                      :                 F             |
 |  Write xyz WF centres to file              :                 F             |
 |  Write on-site energies <0n|H|0n> to file  :                 F             |
 |  Use guiding centre to control phases      :                 F             |
 |  Use phases for initial projections        :                 F             |
 *----------------------------------------------------------------------------*
 *------------------------------- DISENTANGLE --------------------------------*
 |  Using band disentanglement                :                 T             |
 |  Total number of iterations                :                50             |
 |  Mixing ratio                              :             1.000             |
 |  Convergence tolerence                     :         1.000E-10             |
 |  Convergence window                        :                 3             |
 *----------------------------------------------------------------------------*
 Time to read parameters        0.000 (sec)

 *---------------------------------- K-MESH ----------------------------------*
 +----------------------------------------------------------------------------+
 |                    Distance to Nearest-Neighbour Shells                    |
 |                    ------------------------------------                    |
 |          Shell             Distance (Ang^-1)          Multiplicity         |
 |          -----             -----------------          ------------         |
 |             1                   0.753646                      8            |
 |             2                   0.870236                      6            |
 |             3                   1.230700                     12            |
 |             4                   1.443123                     24            |
 |             5                   1.507293                      8            |
 |             6                   1.740472                      6            |
 |             7                   1.896635                     24            |
 |             8                   1.945907                     24            |
 |             9                   2.131634                     24            |
 |            10                   2.260939                     32            |
 |            11                   2.461399                     12            |
 |            12                   2.574193                     48            |
 +----------------------------------------------------------------------------+
 | The b-vectors are chosen automatically                                     |
 | The following shells are used:   1                                         |
 +----------------------------------------------------------------------------+
 |                        Shell   # Nearest-Neighbours                        |
 |                        -----   --------------------                        |
 |                          1               8                                 |
 +----------------------------------------------------------------------------+
 | Completeness relation is fully satisfied [Eq. (B1), PRB 56, 12847 (1997)]  |
 +----------------------------------------------------------------------------+
 |                  b_k Vectors (Ang^-1) and Weights (Ang^2)                  |
 |                  ----------------------------------------                  |
 |            No.         b_k(x)      b_k(y)      b_k(z)        w_b           |
 |            ---        --------------------------------     --------        |
 |             1         0.435118    0.435118    0.435118     0.660231        |
 |             2        -0.435118   -0.435118    0.435118     0.660231        |
 |             3        -0.435118    0.435118   -0.435118     0.660231        |
 |             4        -0.435118    0.435118    0.435118     0.660231        |
 |             5         0.435118   -0.435118    0.435118     0.660231        |
 |             6        -0.435118   -0.435118   -0.435118     0.660231        |
 |             7         0.435118    0.435118   -0.435118     0.660231        |
 |             8         0.435118   -0.435118   -0.435118     0.660231        |
 +----------------------------------------------------------------------------+
 |                           b_k Directions (Ang^-1)                          |
 |                           -----------------------                          |
 |            No.           x           y           z                         |
 |            ---        --------------------------------                     |
 |             1         0.435118    0.435118    0.435118                     |
 |             2        -0.435118   -0.435118    0.435118                     |
 |             3        -0.435118    0.435118   -0.435118                     |
 |             4        -0.435118    0.435118    0.435118                     |
 +----------------------------------------------------------------------------+
  
 *============================================================================*
 |                              MEMORY ESTIMATE                               |
 |         Maximum RAM allocated during each phase of the calculation         |
 *============================================================================*
 |                        Disentanglement            1.76 Mb                  |
 |                            Wannierise:            1.21 Mb                  |
 |                          plot_wannier:            1.21 Mb                  |
 *----------------------------------------------------------------------------*
  
 Starting a new Wannier90 calculation ...

 Time to get kmesh              0.100 (sec)

 Reading overlaps from copper.mmn    :  Created on 14Sep2016 at 13:47:19

 Reading projections from copper.amn :  Created on 14Sep2016 at 13:47:15

 Time to read overlaps          0.072 (sec)

 *------------------------------- DISENTANGLE --------------------------------*
 +----------------------------------------------------------------------------+
 |                              Energy  Windows                               |
 |                              ---------------                               |
 |                   Outer:    2.81739  to   38.00000  (eV)                   |
 |                   Inner:    2.81739  to   13.00000  (eV)                   |
 +----------------------------------------------------------------------------+
   Number of target bands to extract:    7

                   Unitarised projection of Wannier functions                  
                   ------------------------------------------                  
   A_mn = <psi_m|g_n> --> S = A.A^+ --> U = S^-1/2.A
   In dis_project... done
   Using an inner window (linner = T)
   In dis_proj_froz... done

                   Extraction of optimally-connected subspace                  
                   ------------------------------------------                  
 +---------------------------------------------------------------------+<-- DIS
 |  Iter     Omega_I(i-1)      Omega_I(i)      Delta (frac.)    Time   |<-- DIS
 +---------------------------------------------------------------------+<-- DIS
       1       3.70249928       3.66269524       1.087E-02      0.18    <-- DIS
       2       3.66269524       3.66269524       4.885E-15      0.18    <-- DIS
       3       3.66269524       3.66269524       1.998E-15      0.19    <-- DIS
       4       3.66269524       3.66269524       1.554E-15      0.19    <-- DIS

             <<<      Delta < 1.000E-10  over  3 iterations     >>>
             <<< Disentanglement convergence criteria satisfied >>>

        Final Omega_I     3.66269524 (Ang^2)

 +----------------------------------------------------------------------------+

 Time to disentangle bands      0.024 (sec)

 Writing checkpoint file copper.chk... done


 *------------------------------- WANNIERISE ---------------------------------*
 +--------------------------------------------------------------------+<-- CONV
 | Iter  Delta Spread     RMS Gradient      Spread (Ang^2)      Time  |<-- CONV
 +--------------------------------------------------------------------+<-- CONV

 ------------------------------------------------------------------------------
 Initial State
  WF centre and spread    1  ( -0.000000,  0.000000,  0.000000 )     0.40839854
  WF centre and spread    2  (  0.000000, -0.000000, -0.000000 )     0.30383352
  WF centre and spread    3  ( -0.000000, -0.000000, -0.000000 )     0.30383356
  WF centre and spread    4  ( -0.000000,  0.000000, -0.000000 )     0.40838860
  WF centre and spread    5  (  0.000000, -0.000000,  0.000000 )     0.30383419
  WF centre and spread    6  ( -0.902512,  0.902512,  0.902512 )     1.20633320
  WF centre and spread    7  (  0.902512, -0.902512, -0.902512 )     1.20633309
  Sum of centres and spreads ( -0.000000, -0.000000, -0.000000 )     4.14095469

      0     0.414E+01     0.0000000000        4.1409546862       0.20  <-- CONV
        O_D=      0.0053314 O_OD=      0.4729280 O_TOT=      4.1409547 <-- SPRD
 ------------------------------------------------------------------------------
 Cycle:      1
  WF centre and spread    1  ( -0.000000,  0.000000,  0.000000 )     0.40977720
  WF centre and spread    2  (  0.000000, -0.000000, -0.000000 )     0.29835595
  WF centre and spread    3  ( -0.000000, -0.000000, -0.000000 )     0.29835600
  WF centre and spread    4  (  0.000000,  0.000000, -0.000000 )     0.40975879
  WF centre and spread    5  (  0.000000, -0.000000,  0.000000 )     0.29835604
  WF centre and spread    6  ( -0.902512,  0.902512,  0.902512 )     1.17483995
  WF centre and spread    7  (  0.902512, -0.902512, -0.902512 )     1.17483987
  Sum of centres and spreads ( -0.000000, -0.000000, -0.000000 )     4.06428379

      1    -0.767E-01     0.1382148229        4.0642837869       0.20  <-- CONV
        O_D=      0.0066672 O_OD=      0.3949213 O_TOT=      4.0642838 <-- SPRD
 Delta: O_D=  0.1335797E-02 O_OD= -0.7800670E-01 O_TOT= -0.7667090E-01 <-- DLTA
 ------------------------------------------------------------------------------
 Cycle:      2
  WF centre and spread    1  ( -0.000000,  0.000000,  0.000000 )     0.40925029
  WF centre and spread    2  (  0.000000, -0.000000, -0.000000 )     0.30373802
  WF centre and spread    3  ( -0.000000, -0.000000, -0.000000 )     0.30373807
  WF centre and spread    4  (  0.000000,  0.000000, -0.000000 )     0.40924231
  WF centre and spread    5  ( -0.000000, -0.000000,  0.000000 )     0.30374152
  WF centre and spread    6  ( -0.902512,  0.902512,  0.902512 )     1.15316249
  WF centre and spread    7  (  0.902512, -0.902512, -0.902512 )     1.15316242
  Sum of centres and spreads ( -0.000000, -0.000000, -0.000000 )     4.03603513

      2    -0.282E-01     0.0973000658        4.0360351320       0.21  <-- CONV
        O_D=      0.0028014 O_OD=      0.3705385 O_TOT=      4.0360351 <-- SPRD
 Delta: O_D= -0.3865895E-02 O_OD= -0.2438276E-01 O_TOT= -0.2824865E-01 <-- DLTA
 ------------------------------------------------------------------------------
 Cycle:      3
  WF centre and spread    1  ( -0.000000,  0.000000,  0.000000 )     0.40850732
  WF centre and spread    2  (  0.000000, -0.000000, -0.000000 )     0.30720641
  WF centre and spread    3  ( -0.000000, -0.000000, -0.000000 )     0.30720646
  WF centre and spread    4  (  0.000000,  0.000000, -0.000000 )     0.40850555
  WF centre and spread    5  ( -0.000000, -0.000000,  0.000000 )     0.30720527
  WF centre and spread    6  ( -0.902512,  0.902512,  0.902512 )     1.14512970
  WF centre and spread    7  (  0.902512, -0.902512, -0.902512 )     1.14512964
  Sum of centres and spreads ( -0.000000, -0.000000, -0.000000 )     4.02889036

      3    -0.714E-02     0.0597727093        4.0288903599       0.22  <-- CONV
        O_D=      0.0021238 O_OD=      0.3640713 O_TOT=      4.0288904 <-- SPRD
 Delta: O_D= -0.6775443E-03 O_OD= -0.6467228E-02 O_TOT= -0.7144772E-02 <-- DLTA
 ------------------------------------------------------------------------------
 Cycle:      4
  WF centre and spread    1  ( -0.000000,  0.000000,  0.000000 )     0.40839149
  WF centre and spread    2  (  0.000000, -0.000000, -0.000000 )     0.30784831
  WF centre and spread    3  ( -0.000000, -0.000000, -0.000000 )     0.30784836
  WF centre and spread    4  (  0.000000,  0.000000, -0.000000 )     0.40839124
  WF centre and spread    5  ( -0.000000, -0.000000,  0.000000 )     0.30784684
  WF centre and spread    6  ( -0.902512,  0.902512,  0.902512 )     1.14386723
  WF centre and spread    7  (  0.902512, -0.902512, -0.902512 )     1.14386717
  Sum of centres and spreads ( -0.000000, -0.000000, -0.000000 )     4.02806064

      4    -0.830E-03     0.0244757568        4.0280606379       0.22  <-- CONV
        O_D=      0.0019010 O_OD=      0.3634644 O_TOT=      4.0280606 <-- SPRD
 Delta: O_D= -0.2227779E-03 O_OD= -0.6069441E-03 O_TOT= -0.8297220E-03 <-- DLTA
 ------------------------------------------------------------------------------
 Cycle:      5
  WF centre and spread    1  ( -0.000000,  0.000000,  0.000000 )     0.40839351
  WF centre and spread    2  (  0.000000, -0.000000, -0.000000 )     0.30787040
  WF centre and spread    3  ( -0.000000, -0.000000, -0.000000 )     0.30787045
  WF centre and spread    4  (  0.000000,  0.000000, -0.000000 )     0.40839381
  WF centre and spread    5  ( -0.000000, -0.000000,  0.000000 )     0.30786893
  WF centre and spread    6  ( -0.902512,  0.902512,  0.902512 )     1.14382505
  WF centre and spread    7  (  0.902512, -0.902512, -0.902512 )     1.14382500
  Sum of centres and spreads ( -0.000000, -0.000000, -0.000000 )     4.02804715

      5    -0.135E-04     0.0030434794        4.0280471524       0.23  <-- CONV
        O_D=      0.0018953 O_OD=      0.3634567 O_TOT=      4.0280472 <-- SPRD
 Delta: O_D= -0.5775219E-05 O_OD= -0.7710316E-05 O_TOT= -0.1348553E-04 <-- DLTA
 ------------------------------------------------------------------------------
 Cycle:      6
  WF centre and spread    1  ( -0.000000,  0.000000,  0.000000 )     0.40839188
  WF centre and spread    2  (  0.000000, -0.000000, -0.000000 )     0.30787058
  WF centre and spread    3  ( -0.000000, -0.000000, -0.000000 )     0.30787062
  WF centre and spread    4  (  0.000000,  0.000000, -0.000000 )     0.40839222
  WF centre and spread    5  ( -0.000000, -0.000000,  0.000000 )     0.30786922
  WF centre and spread    6  ( -0.902512,  0.902512,  0.902512 )     1.14382578
  WF centre and spread    7  (  0.902512, -0.902512, -0.902512 )     1.14382573
  Sum of centres and spreads ( -0.000000, -0.000000, -0.000000 )     4.02804603

      6    -0.113E-05     0.0008723204        4.0280460255       0.24  <-- CONV
        O_D=      0.0018937 O_OD=      0.3634571 O_TOT=      4.0280460 <-- SPRD
 Delta: O_D= -0.1598244E-05 O_OD=  0.4713114E-06 O_TOT= -0.1126933E-05 <-- DLTA
 ------------------------------------------------------------------------------
 Cycle:      7
  WF centre and spread    1  ( -0.000000,  0.000000,  0.000000 )     0.40839090
  WF centre and spread    2  (  0.000000, -0.000000, -0.000000 )     0.30786652
  WF centre and spread    3  (  0.000000, -0.000000, -0.000000 )     0.30786657
  WF centre and spread    4  (  0.000000,  0.000000, -0.000000 )     0.40839127
  WF centre and spread    5  ( -0.000000, -0.000000,  0.000000 )     0.30786526
  WF centre and spread    6  ( -0.902512,  0.902512,  0.902512 )     1.14383275
  WF centre and spread    7  (  0.902512, -0.902512, -0.902512 )     1.14383270
  Sum of centres and spreads ( -0.000000, -0.000000, -0.000000 )     4.02804598

      7    -0.472E-07     0.0001663440        4.0280459783       0.24  <-- CONV
        O_D=      0.0018938 O_OD=      0.3634570 O_TOT=      4.0280460 <-- SPRD
 Delta: O_D=  0.1310212E-06 O_OD= -0.1781885E-06 O_TOT= -0.4716737E-07 <-- DLTA
 ------------------------------------------------------------------------------
 Cycle:      8
  WF centre and spread    1  ( -0.000000,  0.000000,  0.000000 )     0.40839054
  WF centre and spread    2  (  0.000000,  0.000000, -0.000000 )     0.30785960
  WF centre and spread    3  (  0.000000, -0.000000, -0.000000 )     0.30785964
  WF centre and spread    4  (  0.000000,  0.000000, -0.000000 )     0.40839092
  WF centre and spread    5  ( -0.000000, -0.000000,  0.000000 )     0.30785849
  WF centre and spread    6  ( -0.902512,  0.902512,  0.902512 )     1.14384342
  WF centre and spread    7  (  0.902512, -0.902512, -0.902512 )     1.14384336
  Sum of centres and spreads ( -0.000000, -0.000000, -0.000000 )     4.02804596

      8    -0.178E-07     0.0000774567        4.0280459605       0.25  <-- CONV
        O_D=      0.0018941 O_OD=      0.3634567 O_TOT=      4.0280460 <-- SPRD
 Delta: O_D=  0.2775187E-06 O_OD= -0.2953628E-06 O_TOT= -0.1784407E-07 <-- DLTA
 ------------------------------------------------------------------------------
 Cycle:      9
  WF centre and spread    1  ( -0.000000,  0.000000,  0.000000 )     0.40839065
  WF centre and spread    2  (  0.000000,  0.000000, -0.000000 )     0.30785374
  WF centre and spread    3  (  0.000000, -0.000000, -0.000000 )     0.30785379
  WF centre and spread    4  (  0.000000,  0.000000, -0.000000 )     0.40839106
  WF centre and spread    5  ( -0.000000, -0.000000,  0.000000 )     0.30785274
  WF centre and spread    6  ( -0.902512,  0.902512,  0.902512 )     1.14385202
  WF centre and spread    7  (  0.902512, -0.902512, -0.902512 )     1.14385196
  Sum of centres and spreads ( -0.000000, -0.000000, -0.000000 )     4.02804595

      9    -0.848E-08     0.0000615271        4.0280459520       0.26  <-- CONV
        O_D=      0.0018943 O_OD=      0.3634564 O_TOT=      4.0280460 <-- SPRD
 Delta: O_D=  0.2569619E-06 O_OD= -0.2654464E-06 O_TOT= -0.8484587E-08 <-- DLTA
 ------------------------------------------------------------------------------
 Cycle:     10
  WF centre and spread    1  ( -0.000000,  0.000000,  0.000000 )     0.40839076
  WF centre and spread    2  (  0.000000,  0.000000, -0.000000 )     0.30785102
  WF centre and spread    3  (  0.000000, -0.000000, -0.000000 )     0.30785106
  WF centre and spread    4  (  0.000000,  0.000000, -0.000000 )     0.40839114
  WF centre and spread    5  ( -0.000000, -0.000000,  0.000000 )     0.30785005
  WF centre and spread    6  ( -0.902512,  0.902512,  0.902512 )     1.14385599
  WF centre and spread    7  (  0.902512, -0.902512, -0.902512 )     1.14385593
  Sum of centres and spreads ( -0.000000, -0.000000, -0.000000 )     4.02804595

     10    -0.238E-08     0.0000337505        4.0280459496       0.26  <-- CONV
        O_D=      0.0018945 O_OD=      0.3634562 O_TOT=      4.0280459 <-- SPRD
 Delta: O_D=  0.1418695E-06 O_OD= -0.1442543E-06 O_TOT= -0.2384791E-08 <-- DLTA
 ------------------------------------------------------------------------------
 Cycle:     11
  WF centre and spread    1  ( -0.000000,  0.000000,  0.000000 )     0.40839079
  WF centre and spread    2  (  0.000000,  0.000000, -0.000000 )     0.30785053
  WF centre and spread    3  (  0.000000, -0.000000, -0.000000 )     0.30785057
  WF centre and spread    4  (  0.000000,  0.000000, -0.000000 )     0.40839117
  WF centre and spread    5  ( -0.000000, -0.000000,  0.000000 )     0.30784957
  WF centre and spread    6  ( -0.902512,  0.902512,  0.902512 )     1.14385669
  WF centre and spread    7  (  0.902512, -0.902512, -0.902512 )     1.14385663
  Sum of centres and spreads ( -0.000000, -0.000000, -0.000000 )     4.02804595

     11    -0.296E-09     0.0000135577        4.0280459493       0.27  <-- CONV
        O_D=      0.0018945 O_OD=      0.3634562 O_TOT=      4.0280459 <-- SPRD
 Delta: O_D=  0.2578252E-07 O_OD= -0.2607892E-07 O_TOT= -0.2963985E-09 <-- DLTA
 ------------------------------------------------------------------------------
 Cycle:     12
  WF centre and spread    1  ( -0.000000,  0.000000,  0.000000 )     0.40839081
  WF centre and spread    2  (  0.000000,  0.000000, -0.000000 )     0.30785045
  WF centre and spread    3  (  0.000000, -0.000000, -0.000000 )     0.30785050
  WF centre and spread    4  (  0.000000,  0.000000, -0.000000 )     0.40839120
  WF centre and spread    5  ( -0.000000, -0.000000,  0.000000 )     0.30784949
  WF centre and spread    6  ( -0.902512,  0.902512,  0.902512 )     1.14385678
  WF centre and spread    7  (  0.902512, -0.902512, -0.902512 )     1.14385673
  Sum of centres and spreads ( -0.000000, -0.000000, -0.000000 )     4.02804595

     12    -0.375E-10     0.0000047108        4.0280459493       0.28  <-- CONV
        O_D=      0.0018945 O_OD=      0.3634562 O_TOT=      4.0280459 <-- SPRD
 Delta: O_D=  0.2096305E-08 O_OD= -0.2133843E-08 O_TOT= -0.3753886E-10 <-- DLTA
 ------------------------------------------------------------------------------
 Cycle:     13
  WF centre and spread    1  ( -0.000000,  0.000000,  0.000000 )     0.40839081
  WF centre and spread    2  (  0.000000,  0.000000, -0.000000 )     0.30785045
  WF centre and spread    3  (  0.000000, -0.000000, -0.000000 )     0.30785050
  WF centre and spread    4  (  0.000000,  0.000000, -0.000000 )     0.40839120
  WF centre and spread    5  ( -0.000000, -0.000000,  0.000000 )     0.30784949
  WF centre and spread    6  ( -0.902512,  0.902512,  0.902512 )     1.14385678
  WF centre and spread    7  (  0.902512, -0.902512, -0.902512 )     1.14385672
  Sum of centres and spreads ( -0.000000, -0.000000, -0.000000 )     4.02804595

     13    -0.218E-11     0.0000013246        4.0280459493       0.29  <-- CONV
        O_D=      0.0018945 O_OD=      0.3634562 O_TOT=      4.0280459 <-- SPRD
 Delta: O_D= -0.2296359E-09 O_OD=  0.2274576E-09 O_TOT= -0.2178702E-11 <-- DLTA
 ------------------------------------------------------------------------------
 Cycle:     14
  WF centre and spread    1  ( -0.000000,  0.000000,  0.000000 )     0.40839082
  WF centre and spread    2  (  0.000000,  0.000000, -0.000000 )     0.30785045
  WF centre and spread    3  (  0.000000, -0.000000, -0.000000 )     0.30785050
  WF centre and spread    4  (  0.000000,  0.000000, -0.000000 )     0.40839120
  WF centre and spread    5  ( -0.000000, -0.000000,  0.000000 )     0.30784949
  WF centre and spread    6  ( -0.902512,  0.902512,  0.902512 )     1.14385678
  WF centre and spread    7  (  0.902512, -0.902512, -0.902512 )     1.14385672
  Sum of centres and spreads ( -0.000000, -0.000000, -0.000000 )     4.02804595

     14    -0.397E-12     0.0000006716        4.0280459493       0.30  <-- CONV
        O_D=      0.0018945 O_OD=      0.3634562 O_TOT=      4.0280459 <-- SPRD
 Delta: O_D= -0.9794236E-10 O_OD=  0.9754558E-10 O_TOT= -0.3970158E-12 <-- DLTA
 ------------------------------------------------------------------------------
 Cycle:     15
  WF centre and spread    1  ( -0.000000,  0.000000,  0.000000 )     0.40839082
  WF centre and spread    2  (  0.000000,  0.000000, -0.000000 )     0.30785045
  WF centre and spread    3  (  0.000000, -0.000000, -0.000000 )     0.30785050
  WF centre and spread    4  (  0.000000,  0.000000, -0.000000 )     0.40839120
  WF centre and spread    5  ( -0.000000, -0.000000,  0.000000 )     0.30784949
  WF centre and spread    6  ( -0.902512,  0.902512,  0.902512 )     1.14385678
  WF centre and spread    7  (  0.902512, -0.902512, -0.902512 )     1.14385672
  Sum of centres and spreads ( -0.000000, -0.000000, -0.000000 )     4.02804595

     15    -0.262E-12     0.0000005341        4.0280459493       0.30  <-- CONV
        O_D=      0.0018945 O_OD=      0.3634562 O_TOT=      4.0280459 <-- SPRD
 Delta: O_D= -0.8773341E-10 O_OD=  0.8747086E-10 O_TOT= -0.2620126E-12 <-- DLTA
 ------------------------------------------------------------------------------
 Cycle:     16
  WF centre and spread    1  ( -0.000000,  0.000000,  0.000000 )     0.40839082
  WF centre and spread    2  (  0.000000,  0.000000, -0.000000 )     0.30785045
  WF centre and spread    3  (  0.000000, -0.000000, -0.000000 )     0.30785050
  WF centre and spread    4  (  0.000000,  0.000000, -0.000000 )     0.40839120
  WF centre and spread    5  ( -0.000000, -0.000000,  0.000000 )     0.30784949
  WF centre and spread    6  ( -0.902512,  0.902512,  0.902512 )     1.14385678
  WF centre and spread    7  (  0.902512, -0.902512, -0.902512 )     1.14385672
  Sum of centres and spreads ( -0.000000, -0.000000, -0.000000 )     4.02804595

     16    -0.158E-12     0.0000004217        4.0280459493       0.31  <-- CONV
        O_D=      0.0018945 O_OD=      0.3634562 O_TOT=      4.0280459 <-- SPRD
 Delta: O_D= -0.6705899E-10 O_OD=  0.6690115E-10 O_TOT= -0.1580958E-12 <-- DLTA
 ------------------------------------------------------------------------------
 Cycle:     17
  WF centre and spread    1  ( -0.000000,  0.000000,  0.000000 )     0.40839082
  WF centre and spread    2  (  0.000000,  0.000000, -0.000000 )     0.30785045
  WF centre and spread    3  (  0.000000, -0.000000, -0.000000 )     0.30785049
  WF centre and spread    4  (  0.000000,  0.000000, -0.000000 )     0.40839120
  WF centre and spread    5  ( -0.000000, -0.000000,  0.000000 )     0.30784948
  WF centre and spread    6  ( -0.902512,  0.902512,  0.902512 )     1.14385678
  WF centre and spread    7  (  0.902512, -0.902512, -0.902512 )     1.14385672
  Sum of centres and spreads ( -0.000000, -0.000000, -0.000000 )     4.02804595

     17    -0.968E-13     0.0000003413        4.0280459493       0.32  <-- CONV
        O_D=      0.0018945 O_OD=      0.3634562 O_TOT=      4.0280459 <-- SPRD
 Delta: O_D= -0.5135448E-10 O_OD=  0.5125794E-10 O_TOT= -0.9681145E-13 <-- DLTA
 ------------------------------------------------------------------------------
 Cycle:     18
  WF centre and spread    1  ( -0.000000,  0.000000,  0.000000 )     0.40839082
  WF centre and spread    2  (  0.000000,  0.000000, -0.000000 )     0.30785045
  WF centre and spread    3  (  0.000000, -0.000000, -0.000000 )     0.30785049
  WF centre and spread    4  (  0.000000,  0.000000, -0.000000 )     0.40839120
  WF centre and spread    5  ( -0.000000, -0.000000,  0.000000 )     0.30784948
  WF centre and spread    6  ( -0.902512,  0.902512,  0.902512 )     1.14385678
  WF centre and spread    7  (  0.902512, -0.902512, -0.902512 )     1.14385672
  Sum of centres and spreads ( -0.000000, -0.000000, -0.000000 )     4.02804595

     18    -0.417E-13     0.0000002834        4.0280459493       0.32  <-- CONV
        O_D=      0.0018945 O_OD=      0.3634562 O_TOT=      4.0280459 <-- SPRD
 Delta: O_D= -0.2519509E-10 O_OD=  0.2515310E-10 O_TOT= -0.4174439E-13 <-- DLTA
 ------------------------------------------------------------------------------
 Cycle:     19
  WF centre and spread    1  ( -0.000000,  0.000000,  0.000000 )     0.40839082
  WF centre and spread    2  (  0.000000,  0.000000, -0.000000 )     0.30785045
  WF centre and spread    3  (  0.000000, -0.000000, -0.000000 )     0.30785049
  WF centre and spread    4  (  0.000000,  0.000000, -0.000000 )     0.40839120
  WF centre and spread    5  ( -0.000000, -0.000000,  0.000000 )     0.30784948
  WF centre and spread    6  ( -0.902512,  0.902512,  0.902512 )     1.14385678
  WF centre and spread    7  (  0.902512, -0.902512, -0.902512 )     1.14385672
  Sum of centres and spreads ( -0.000000, -0.000000, -0.000000 )     4.02804595

     19    -0.799E-14     0.0000002557        4.0280459493       0.33  <-- CONV
        O_D=      0.0018945 O_OD=      0.3634562 O_TOT=      4.0280459 <-- SPRD
 Delta: O_D= -0.3179705E-11 O_OD=  0.3171574E-11 O_TOT= -0.7993606E-14 <-- DLTA
 ------------------------------------------------------------------------------
 Cycle:     20
  WF centre and spread    1  ( -0.000000,  0.000000,  0.000000 )     0.40839082
  WF centre and spread    2  (  0.000000,  0.000000, -0.000000 )     0.30785045
  WF centre and spread    3  (  0.000000, -0.000000, -0.000000 )     0.30785049
  WF centre and spread    4  (  0.000000,  0.000000, -0.000000 )     0.40839120
  WF centre and spread    5  ( -0.000000, -0.000000,  0.000000 )     0.30784948
  WF centre and spread    6  ( -0.902512,  0.902512,  0.902512 )     1.14385678
  WF centre and spread    7  (  0.902512, -0.902512, -0.902512 )     1.14385672
  Sum of centres and spreads ( -0.000000, -0.000000, -0.000000 )     4.02804595

     20    -0.195E-13     0.0000002516        4.0280459493       0.33  <-- CONV
        O_D=      0.0018945 O_OD=      0.3634562 O_TOT=      4.0280459 <-- SPRD
 Delta: O_D= -0.1217495E-10 O_OD=  0.1215578E-10 O_TOT= -0.1953993E-13 <-- DLTA
 ------------------------------------------------------------------------------
 Cycle:     21
  WF centre and spread    1  ( -0.000000,  0.000000,  0.000000 )     0.40839082
  WF centre and spread    2  (  0.000000,  0.000000, -0.000000 )     0.30785045
  WF centre and spread    3  (  0.000000, -0.000000, -0.000000 )     0.30785049
  WF centre and spread    4  (  0.000000,  0.000000, -0.000000 )     0.40839120
  WF centre and spread    5  ( -0.000000, -0.000000,  0.000000 )     0.30784948
  WF centre and spread    6  ( -0.902512,  0.902512,  0.902512 )     1.14385678
  WF centre and spread    7  (  0.902512, -0.902512, -0.902512 )     1.14385672
  Sum of centres and spreads ( -0.000000, -0.000000, -0.000000 )     4.02804595

     21    -0.187E-13     0.0000002359        4.0280459493       0.34  <-- CONV
        O_D=      0.0018945 O_OD=      0.3634562 O_TOT=      4.0280459 <-- SPRD
 Delta: O_D= -0.8148190E-11 O_OD=  0.8129386E-11 O_TOT= -0.1865175E-13 <-- DLTA
 ------------------------------------------------------------------------------
 Cycle:     22
  WF centre and spread    1  ( -0.000000,  0.000000,  0.000000 )     0.40839082
  WF centre and spread    2  (  0.000000,  0.000000, -0.000000 )     0.30785045
  WF centre and spread    3  (  0.000000, -0.000000, -0.000000 )     0.30785049
  WF centre and spread    4  (  0.000000,  0.000000, -0.000000 )     0.40839120
  WF centre and spread    5  ( -0.000000, -0.000000,  0.000000 )     0.30784948
  WF centre and spread    6  ( -0.902512,  0.902512,  0.902512 )     1.14385678
  WF centre and spread    7  (  0.902512, -0.902512, -0.902512 )     1.14385672
  Sum of centres and spreads ( -0.000000, -0.000000, -0.000000 )     4.02804595

     22    -0.373E-13     0.0000002252        4.0280459493       0.34  <-- CONV
        O_D=      0.0018945 O_OD=      0.3634562 O_TOT=      4.0280459 <-- SPRD
 Delta: O_D= -0.2406502E-10 O_OD=  0.2402728E-10 O_TOT= -0.3730349E-13 <-- DLTA
 ------------------------------------------------------------------------------
 Cycle:     23
  WF centre and spread    1  ( -0.000000,  0.000000,  0.000000 )     0.40839082
  WF centre and spread    2  (  0.000000,  0.000000, -0.000000 )     0.30785045
  WF centre and spread    3  (  0.000000, -0.000000, -0.000000 )     0.30785049
  WF centre and spread    4  (  0.000000,  0.000000, -0.000000 )     0.40839120
  WF centre and spread    5  ( -0.000000, -0.000000,  0.000000 )     0.30784948
  WF centre and spread    6  ( -0.902512,  0.902512,  0.902512 )     1.14385678
  WF centre and spread    7  (  0.902512, -0.902512, -0.902512 )     1.14385672
  Sum of centres and spreads ( -0.000000, -0.000000, -0.000000 )     4.02804595

     23    -0.151E-13     0.0000001931        4.0280459493       0.35  <-- CONV
        O_D=      0.0018945 O_OD=      0.3634562 O_TOT=      4.0280459 <-- SPRD
 Delta: O_D= -0.9073378E-11 O_OD=  0.9058920E-11 O_TOT= -0.1509903E-13 <-- DLTA
 ------------------------------------------------------------------------------
 Cycle:     24
  WF centre and spread    1  ( -0.000000,  0.000000,  0.000000 )     0.40839082
  WF centre and spread    2  (  0.000000,  0.000000, -0.000000 )     0.30785045
  WF centre and spread    3  (  0.000000, -0.000000, -0.000000 )     0.30785049
  WF centre and spread    4  (  0.000000,  0.000000, -0.000000 )     0.40839121
  WF centre and spread    5  ( -0.000000, -0.000000,  0.000000 )     0.30784948
  WF centre and spread    6  ( -0.902512,  0.902512,  0.902512 )     1.14385678
  WF centre and spread    7  (  0.902512, -0.902512, -0.902512 )     1.14385672
  Sum of centres and spreads ( -0.000000, -0.000000, -0.000000 )     4.02804595

     24    -0.400E-13     0.0000001805        4.0280459493       0.36  <-- CONV
        O_D=      0.0018945 O_OD=      0.3634562 O_TOT=      4.0280459 <-- SPRD
 Delta: O_D= -0.2622096E-10 O_OD=  0.2618061E-10 O_TOT= -0.3996803E-13 <-- DLTA
 ------------------------------------------------------------------------------
 Cycle:     25
  WF centre and spread    1  ( -0.000000,  0.000000,  0.000000 )     0.40839082
  WF centre and spread    2  (  0.000000,  0.000000, -0.000000 )     0.30785045
  WF centre and spread    3  (  0.000000, -0.000000, -0.000000 )     0.30785049
  WF centre and spread    4  (  0.000000,  0.000000, -0.000000 )     0.40839121
  WF centre and spread    5  ( -0.000000, -0.000000,  0.000000 )     0.30784948
  WF centre and spread    6  ( -0.902512,  0.902512,  0.902512 )     1.14385678
  WF centre and spread    7  (  0.902512, -0.902512, -0.902512 )     1.14385672
  Sum of centres and spreads ( -0.000000, -0.000000, -0.000000 )     4.02804595

     25     0.266E-14     0.0000001427        4.0280459493       0.36  <-- CONV
        O_D=      0.0018945 O_OD=      0.3634562 O_TOT=      4.0280459 <-- SPRD
 Delta: O_D= -0.2417270E-12 O_OD=  0.2443601E-12 O_TOT=  0.2664535E-14 <-- DLTA
 ------------------------------------------------------------------------------
 Cycle:     26
  WF centre and spread    1  ( -0.000000,  0.000000,  0.000000 )     0.40839082
  WF centre and spread    2  (  0.000000,  0.000000, -0.000000 )     0.30785045
  WF centre and spread    3  (  0.000000, -0.000000, -0.000000 )     0.30785049
  WF centre and spread    4  (  0.000000,  0.000000, -0.000000 )     0.40839121
  WF centre and spread    5  ( -0.000000, -0.000000,  0.000000 )     0.30784948
  WF centre and spread    6  ( -0.902512,  0.902512,  0.902512 )     1.14385678
  WF centre and spread    7  (  0.902512, -0.902512, -0.902512 )     1.14385672
  Sum of centres and spreads ( -0.000000, -0.000000, -0.000000 )     4.02804595

     26    -0.444E-14     0.0000001420        4.0280459493       0.37  <-- CONV
        O_D=      0.0018945 O_OD=      0.3634562 O_TOT=      4.0280459 <-- SPRD
 Delta: O_D= -0.1394869E-11 O_OD=  0.1390443E-11 O_TOT= -0.4440892E-14 <-- DLTA
 ------------------------------------------------------------------------------
 Cycle:     27
  WF centre and spread    1  ( -0.000000,  0.000000,  0.000000 )     0.40839082
  WF centre and spread    2  (  0.000000,  0.000000, -0.000000 )     0.30785045
  WF centre and spread    3  (  0.000000, -0.000000, -0.000000 )     0.30785049
  WF centre and spread    4  (  0.000000,  0.000000, -0.000000 )     0.40839121
  WF centre and spread    5  ( -0.000000, -0.000000,  0.000000 )     0.30784948
  WF centre and spread    6  ( -0.902512,  0.902512,  0.902512 )     1.14385678
  WF centre and spread    7  (  0.902512, -0.902512, -0.902512 )     1.14385672
  Sum of centres and spreads ( -0.000000, -0.000000, -0.000000 )     4.02804595

     27    -0.355E-14     0.0000001377        4.0280459493       0.38  <-- CONV
        O_D=      0.0018945 O_OD=      0.3634562 O_TOT=      4.0280459 <-- SPRD
 Delta: O_D= -0.1172512E-11 O_OD=  0.1169398E-11 O_TOT= -0.3552714E-14 <-- DLTA
 ------------------------------------------------------------------------------
 Cycle:     28
  WF centre and spread    1  ( -0.000000,  0.000000,  0.000000 )     0.40839082
  WF centre and spread    2  (  0.000000,  0.000000, -0.000000 )     0.30785045
  WF centre and spread    3  (  0.000000, -0.000000, -0.000000 )     0.30785049
  WF centre and spread    4  (  0.000000,  0.000000, -0.000000 )     0.40839121
  WF centre and spread    5  ( -0.000000, -0.000000,  0.000000 )     0.30784948
  WF centre and spread    6  ( -0.902512,  0.902512,  0.902512 )     1.14385678
  WF centre and spread    7  (  0.902512, -0.902512, -0.902512 )     1.14385672
  Sum of centres and spreads ( -0.000000, -0.000000, -0.000000 )     4.02804595

     28    -0.622E-14     0.0000001340        4.0280459493       0.38  <-- CONV
        O_D=      0.0018945 O_OD=      0.3634562 O_TOT=      4.0280459 <-- SPRD
 Delta: O_D= -0.2434722E-11 O_OD=  0.2428557E-11 O_TOT= -0.6217249E-14 <-- DLTA
 ------------------------------------------------------------------------------
 Cycle:     29
  WF centre and spread    1  ( -0.000000,  0.000000,  0.000000 )     0.40839082
  WF centre and spread    2  (  0.000000,  0.000000, -0.000000 )     0.30785045
  WF centre and spread    3  (  0.000000, -0.000000, -0.000000 )     0.30785049
  WF centre and spread    4  (  0.000000,  0.000000, -0.000000 )     0.40839121
  WF centre and spread    5  ( -0.000000, -0.000000,  0.000000 )     0.30784948
  WF centre and spread    6  ( -0.902512,  0.902512,  0.902512 )     1.14385678
  WF centre and spread    7  (  0.902512, -0.902512, -0.902512 )     1.14385672
  Sum of centres and spreads ( -0.000000, -0.000000, -0.000000 )     4.02804595

     29    -0.622E-14     0.0000001262        4.0280459493       0.38  <-- CONV
        O_D=      0.0018945 O_OD=      0.3634562 O_TOT=      4.0280459 <-- SPRD
 Delta: O_D= -0.2641989E-11 O_OD=  0.2635392E-11 O_TOT= -0.6217249E-14 <-- DLTA
 ------------------------------------------------------------------------------
 Cycle:     30
  WF centre and spread    1  ( -0.000000,  0.000000,  0.000000 )     0.40839082
  WF centre and spread    2  (  0.000000,  0.000000, -0.000000 )     0.30785045
  WF centre and spread    3  (  0.000000, -0.000000, -0.000000 )     0.30785049
  WF centre and spread    4  (  0.000000,  0.000000, -0.000000 )     0.40839121
  WF centre and spread    5  ( -0.000000, -0.000000,  0.000000 )     0.30784948
  WF centre and spread    6  ( -0.902512,  0.902512,  0.902512 )     1.14385678
  WF centre and spread    7  (  0.902512, -0.902512, -0.902512 )     1.14385672
  Sum of centres and spreads ( -0.000000, -0.000000, -0.000000 )     4.02804595

     30    -0.115E-13     0.0000001173        4.0280459493       0.39  <-- CONV
        O_D=      0.0018945 O_OD=      0.3634562 O_TOT=      4.0280459 <-- SPRD
 Delta: O_D= -0.5780930E-11 O_OD=  0.5769052E-11 O_TOT= -0.1154632E-13 <-- DLTA
 ------------------------------------------------------------------------------
 Cycle:     31
  WF centre and spread    1  ( -0.000000,  0.000000,  0.000000 )     0.40839082
  WF centre and spread    2  (  0.000000,  0.000000, -0.000000 )     0.30785045
  WF centre and spread    3  (  0.000000, -0.000000, -0.000000 )     0.30785049
  WF centre and spread    4  (  0.000000,  0.000000, -0.000000 )     0.40839121
  WF centre and spread    5  ( -0.000000, -0.000000,  0.000000 )     0.30784948
  WF centre and spread    6  ( -0.902512,  0.902512,  0.902512 )     1.14385678
  WF centre and spread    7  (  0.902512, -0.902512, -0.902512 )     1.14385672
  Sum of centres and spreads ( -0.000000, -0.000000, -0.000000 )     4.02804595

     31    -0.888E-15     0.0000000969        4.0280459493       0.40  <-- CONV
        O_D=      0.0018945 O_OD=      0.3634562 O_TOT=      4.0280459 <-- SPRD
 Delta: O_D= -0.1233323E-13 O_OD=  0.1215694E-13 O_TOT= -0.8881784E-15 <-- DLTA
 ------------------------------------------------------------------------------
 Cycle:     32
  WF centre and spread    1  ( -0.000000,  0.000000,  0.000000 )     0.40839082
  WF centre and spread    2  (  0.000000,  0.000000, -0.000000 )     0.30785045
  WF centre and spread    3  (  0.000000, -0.000000, -0.000000 )     0.30785049
  WF centre and spread    4  (  0.000000,  0.000000, -0.000000 )     0.40839121
  WF centre and spread    5  ( -0.000000, -0.000000,  0.000000 )     0.30784948
  WF centre and spread    6  ( -0.902512,  0.902512,  0.902512 )     1.14385678
  WF centre and spread    7  (  0.902512, -0.902512, -0.902512 )     1.14385672
  Sum of centres and spreads ( -0.000000, -0.000000, -0.000000 )     4.02804595

     32    -0.355E-14     0.0000000967        4.0280459493       0.40  <-- CONV
        O_D=      0.0018945 O_OD=      0.3634562 O_TOT=      4.0280459 <-- SPRD
 Delta: O_D= -0.1949114E-12 O_OD=  0.1905143E-12 O_TOT= -0.3552714E-14 <-- DLTA
 ------------------------------------------------------------------------------
 Cycle:     33
  WF centre and spread    1  ( -0.000000,  0.000000,  0.000000 )     0.40839082
  WF centre and spread    2  (  0.000000,  0.000000, -0.000000 )     0.30785045
  WF centre and spread    3  (  0.000000, -0.000000, -0.000000 )     0.30785049
  WF centre and spread    4  (  0.000000,  0.000000, -0.000000 )     0.40839121
  WF centre and spread    5  ( -0.000000, -0.000000,  0.000000 )     0.30784948
  WF centre and spread    6  ( -0.902512,  0.902512,  0.902512 )     1.14385678
  WF centre and spread    7  (  0.902512, -0.902512, -0.902512 )     1.14385672
  Sum of centres and spreads ( -0.000000, -0.000000, -0.000000 )     4.02804595

     33     0.000E+00     0.0000000938        4.0280459493       0.41  <-- CONV
        O_D=      0.0018945 O_OD=      0.3634562 O_TOT=      4.0280459 <-- SPRD
 Delta: O_D= -0.1961129E-12 O_OD=  0.1962874E-12 O_TOT=  0.0000000E+00 <-- DLTA
 ------------------------------------------------------------------------------
 Cycle:     34
  WF centre and spread    1  ( -0.000000,  0.000000,  0.000000 )     0.40839082
  WF centre and spread    2  (  0.000000,  0.000000, -0.000000 )     0.30785045
  WF centre and spread    3  (  0.000000, -0.000000, -0.000000 )     0.30785049
  WF centre and spread    4  (  0.000000,  0.000000, -0.000000 )     0.40839121
  WF centre and spread    5  ( -0.000000, -0.000000,  0.000000 )     0.30784948
  WF centre and spread    6  ( -0.902512,  0.902512,  0.902512 )     1.14385678
  WF centre and spread    7  (  0.902512, -0.902512, -0.902512 )     1.14385672
  Sum of centres and spreads ( -0.000000, -0.000000, -0.000000 )     4.02804595

     34    -0.711E-14     0.0000000906        4.0280459493       0.41  <-- CONV
        O_D=      0.0018945 O_OD=      0.3634562 O_TOT=      4.0280459 <-- SPRD
 Delta: O_D= -0.2661027E-12 O_OD=  0.2596812E-12 O_TOT= -0.7105427E-14 <-- DLTA
 ------------------------------------------------------------------------------
 Cycle:     35
  WF centre and spread    1  ( -0.000000,  0.000000,  0.000000 )     0.40839082
  WF centre and spread    2  (  0.000000,  0.000000, -0.000000 )     0.30785045
  WF centre and spread    3  (  0.000000, -0.000000, -0.000000 )     0.30785049
  WF centre and spread    4  (  0.000000,  0.000000, -0.000000 )     0.40839121
  WF centre and spread    5  ( -0.000000, -0.000000,  0.000000 )     0.30784948
  WF centre and spread    6  ( -0.902512,  0.902512,  0.902512 )     1.14385678
  WF centre and spread    7  (  0.902512, -0.902512, -0.902512 )     1.14385672
  Sum of centres and spreads ( -0.000000, -0.000000, -0.000000 )     4.02804595

     35    -0.355E-14     0.0000000854        4.0280459493       0.42  <-- CONV
        O_D=      0.0018945 O_OD=      0.3634562 O_TOT=      4.0280459 <-- SPRD
 Delta: O_D= -0.2163515E-12 O_OD=  0.2124967E-12 O_TOT= -0.3552714E-14 <-- DLTA
 ------------------------------------------------------------------------------
 Cycle:     36
  WF centre and spread    1  ( -0.000000,  0.000000,  0.000000 )     0.40839082
  WF centre and spread    2  (  0.000000,  0.000000, -0.000000 )     0.30785045
  WF centre and spread    3  (  0.000000, -0.000000, -0.000000 )     0.30785049
  WF centre and spread    4  (  0.000000,  0.000000, -0.000000 )     0.40839121
  WF centre and spread    5  ( -0.000000, -0.000000,  0.000000 )     0.30784948
  WF centre and spread    6  ( -0.902512,  0.902512,  0.902512 )     1.14385678
  WF centre and spread    7  (  0.902512, -0.902512, -0.902512 )     1.14385672
  Sum of centres and spreads ( -0.000000, -0.000000, -0.000000 )     4.02804595

     36     0.000E+00     0.0000000795        4.0280459493       0.42  <-- CONV
        O_D=      0.0018945 O_OD=      0.3634562 O_TOT=      4.0280459 <-- SPRD
 Delta: O_D= -0.7512307E-13 O_OD=  0.7477352E-13 O_TOT=  0.0000000E+00 <-- DLTA
 ------------------------------------------------------------------------------
 Cycle:     37
  WF centre and spread    1  ( -0.000000,  0.000000,  0.000000 )     0.40839082
  WF centre and spread    2  (  0.000000,  0.000000, -0.000000 )     0.30785045
  WF centre and spread    3  (  0.000000, -0.000000, -0.000000 )     0.30785049
  WF centre and spread    4  (  0.000000,  0.000000, -0.000000 )     0.40839121
  WF centre and spread    5  ( -0.000000, -0.000000,  0.000000 )     0.30784948
  WF centre and spread    6  ( -0.902512,  0.902512,  0.902512 )     1.14385678
  WF centre and spread    7  (  0.902512, -0.902512, -0.902512 )     1.14385672
  Sum of centres and spreads ( -0.000000, -0.000000, -0.000000 )     4.02804595

     37    -0.178E-14     0.0000000752        4.0280459493       0.43  <-- CONV
        O_D=      0.0018945 O_OD=      0.3634562 O_TOT=      4.0280459 <-- SPRD
 Delta: O_D=  0.1223468E-12 O_OD= -0.1232903E-12 O_TOT= -0.1776357E-14 <-- DLTA
 ------------------------------------------------------------------------------
 Cycle:     38
  WF centre and spread    1  ( -0.000000,  0.000000,  0.000000 )     0.40839082
  WF centre and spread    2  (  0.000000,  0.000000, -0.000000 )     0.30785045
  WF centre and spread    3  (  0.000000, -0.000000, -0.000000 )     0.30785049
  WF centre and spread    4  (  0.000000,  0.000000, -0.000000 )     0.40839121
  WF centre and spread    5  ( -0.000000, -0.000000,  0.000000 )     0.30784948
  WF centre and spread    6  ( -0.902512,  0.902512,  0.902512 )     1.14385678
  WF centre and spread    7  (  0.902512, -0.902512, -0.902512 )     1.14385672
  Sum of centres and spreads ( -0.000000, -0.000000, -0.000000 )     4.02804595

     38    -0.888E-15     0.0000000741        4.0280459493       0.43  <-- CONV
        O_D=      0.0018945 O_OD=      0.3634562 O_TOT=      4.0280459 <-- SPRD
 Delta: O_D=  0.2503421E-12 O_OD= -0.2517431E-12 O_TOT= -0.8881784E-15 <-- DLTA
 ------------------------------------------------------------------------------
 Cycle:     39
  WF centre and spread    1  ( -0.000000,  0.000000,  0.000000 )     0.40839082
  WF centre and spread    2  (  0.000000,  0.000000, -0.000000 )     0.30785045
  WF centre and spread    3  (  0.000000, -0.000000, -0.000000 )     0.30785049
  WF centre and spread    4  (  0.000000,  0.000000, -0.000000 )     0.40839121
  WF centre and spread    5  ( -0.000000, -0.000000,  0.000000 )     0.30784948
  WF centre and spread    6  ( -0.902512,  0.902512,  0.902512 )     1.14385678
  WF centre and spread    7  (  0.902512, -0.902512, -0.902512 )     1.14385672
  Sum of centres and spreads ( -0.000000, -0.000000, -0.000000 )     4.02804595

     39     0.888E-15     0.0000000719        4.0280459493       0.44  <-- CONV
        O_D=      0.0018945 O_OD=      0.3634562 O_TOT=      4.0280459 <-- SPRD
 Delta: O_D=  0.1189162E-12 O_OD= -0.1181277E-12 O_TOT=  0.8881784E-15 <-- DLTA
 ------------------------------------------------------------------------------
 Cycle:     40
  WF centre and spread    1  ( -0.000000,  0.000000,  0.000000 )     0.40839082
  WF centre and spread    2  (  0.000000,  0.000000, -0.000000 )     0.30785045
  WF centre and spread    3  (  0.000000, -0.000000, -0.000000 )     0.30785049
  WF centre and spread    4  (  0.000000,  0.000000, -0.000000 )     0.40839121
  WF centre and spread    5  ( -0.000000, -0.000000,  0.000000 )     0.30784948
  WF centre and spread    6  ( -0.902512,  0.902512,  0.902512 )     1.14385678
  WF centre and spread    7  (  0.902512, -0.902512, -0.902512 )     1.14385672
  Sum of centres and spreads ( -0.000000, -0.000000, -0.000000 )     4.02804595

     40    -0.355E-14     0.0000000709        4.0280459493       0.44  <-- CONV
        O_D=      0.0018945 O_OD=      0.3634562 O_TOT=      4.0280459 <-- SPRD
 Delta: O_D=  0.5325913E-12 O_OD= -0.5365153E-12 O_TOT= -0.3552714E-14 <-- DLTA
 ------------------------------------------------------------------------------
 Cycle:     41
  WF centre and spread    1  ( -0.000000,  0.000000,  0.000000 )     0.40839082
  WF centre and spread    2  (  0.000000,  0.000000, -0.000000 )     0.30785045
  WF centre and spread    3  (  0.000000, -0.000000, -0.000000 )     0.30785049
  WF centre and spread    4  (  0.000000,  0.000000, -0.000000 )     0.40839121
  WF centre and spread    5  ( -0.000000, -0.000000,  0.000000 )     0.30784948
  WF centre and spread    6  ( -0.902512,  0.902512,  0.902512 )     1.14385678
  WF centre and spread    7  (  0.902512, -0.902512, -0.902512 )     1.14385672
  Sum of centres and spreads ( -0.000000, -0.000000, -0.000000 )     4.02804595

     41    -0.266E-14     0.0000000668        4.0280459493       0.45  <-- CONV
        O_D=      0.0018945 O_OD=      0.3634562 O_TOT=      4.0280459 <-- SPRD
 Delta: O_D=  0.6634250E-12 O_OD= -0.6658563E-12 O_TOT= -0.2664535E-14 <-- DLTA
 ------------------------------------------------------------------------------
 Cycle:     42
  WF centre and spread    1  ( -0.000000,  0.000000,  0.000000 )     0.40839082
  WF centre and spread    2  (  0.000000,  0.000000, -0.000000 )     0.30785045
  WF centre and spread    3  (  0.000000, -0.000000, -0.000000 )     0.30785049
  WF centre and spread    4  (  0.000000,  0.000000, -0.000000 )     0.40839121
  WF centre and spread    5  ( -0.000000, -0.000000,  0.000000 )     0.30784948
  WF centre and spread    6  ( -0.902512,  0.902512,  0.902512 )     1.14385678
  WF centre and spread    7  (  0.902512, -0.902512, -0.902512 )     1.14385672
  Sum of centres and spreads ( -0.000000, -0.000000, -0.000000 )     4.02804595

     42     0.000E+00     0.0000000622        4.0280459493       0.46  <-- CONV
        O_D=      0.0018945 O_OD=      0.3634562 O_TOT=      4.0280459 <-- SPRD
 Delta: O_D=  0.7341083E-12 O_OD= -0.7335244E-12 O_TOT=  0.0000000E+00 <-- DLTA
 ------------------------------------------------------------------------------
 Cycle:     43
  WF centre and spread    1  ( -0.000000,  0.000000,  0.000000 )     0.40839082
  WF centre and spread    2  (  0.000000,  0.000000, -0.000000 )     0.30785045
  WF centre and spread    3  (  0.000000, -0.000000, -0.000000 )     0.30785049
  WF centre and spread    4  (  0.000000,  0.000000, -0.000000 )     0.40839121
  WF centre and spread    5  ( -0.000000, -0.000000,  0.000000 )     0.30784948
  WF centre and spread    6  ( -0.902512,  0.902512,  0.902512 )     1.14385678
  WF centre and spread    7  (  0.902512, -0.902512, -0.902512 )     1.14385672
  Sum of centres and spreads ( -0.000000, -0.000000, -0.000000 )     4.02804595

     43    -0.178E-14     0.0000000577        4.0280459493       0.46  <-- CONV
        O_D=      0.0018945 O_OD=      0.3634562 O_TOT=      4.0280459 <-- SPRD
 Delta: O_D=  0.2616835E-12 O_OD= -0.2635114E-12 O_TOT= -0.1776357E-14 <-- DLTA
 ------------------------------------------------------------------------------
 Cycle:     44
  WF centre and spread    1  ( -0.000000,  0.000000,  0.000000 )     0.40839082
  WF centre and spread    2  (  0.000000,  0.000000, -0.000000 )     0.30785045
  WF centre and spread    3  (  0.000000, -0.000000, -0.000000 )     0.30785049
  WF centre and spread    4  (  0.000000,  0.000000, -0.000000 )     0.40839121
  WF centre and spread    5  ( -0.000000, -0.000000,  0.000000 )     0.30784948
  WF centre and spread    6  ( -0.902512,  0.902512,  0.902512 )     1.14385678
  WF centre and spread    7  (  0.902512, -0.902512, -0.902512 )     1.14385672
  Sum of centres and spreads ( -0.000000, -0.000000, -0.000000 )     4.02804595

     44     0.178E-14     0.0000000569        4.0280459493       0.47  <-- CONV
        O_D=      0.0018945 O_OD=      0.3634562 O_TOT=      4.0280459 <-- SPRD
 Delta: O_D=  0.4838165E-13 O_OD= -0.4701795E-13 O_TOT=  0.1776357E-14 <-- DLTA
 ------------------------------------------------------------------------------
 Cycle:     45
  WF centre and spread    1  ( -0.000000,  0.000000,  0.000000 )     0.40839082
  WF centre and spread    2  (  0.000000,  0.000000, -0.000000 )     0.30785045
  WF centre and spread    3  (  0.000000, -0.000000, -0.000000 )     0.30785049
  WF centre and spread    4  (  0.000000,  0.000000, -0.000000 )     0.40839121
  WF centre and spread    5  ( -0.000000, -0.000000,  0.000000 )     0.30784948
  WF centre and spread    6  ( -0.902512,  0.902512,  0.902512 )     1.14385678
  WF centre and spread    7  (  0.902512, -0.902512, -0.902512 )     1.14385672
  Sum of centres and spreads ( -0.000000, -0.000000, -0.000000 )     4.02804595

     45    -0.266E-14     0.0000000567        4.0280459493       0.47  <-- CONV
        O_D=      0.0018945 O_OD=      0.3634562 O_TOT=      4.0280459 <-- SPRD
 Delta: O_D=  0.7858141E-12 O_OD= -0.7884804E-12 O_TOT= -0.2664535E-14 <-- DLTA
 ------------------------------------------------------------------------------
 Cycle:     46
  WF centre and spread    1  ( -0.000000,  0.000000,  0.000000 )     0.40839082
  WF centre and spread    2  (  0.000000,  0.000000, -0.000000 )     0.30785045
  WF centre and spread    3  (  0.000000, -0.000000, -0.000000 )     0.30785049
  WF centre and spread    4  (  0.000000,  0.000000, -0.000000 )     0.40839121
  WF centre and spread    5  ( -0.000000, -0.000000,  0.000000 )     0.30784948
  WF centre and spread    6  ( -0.902512,  0.902512,  0.902512 )     1.14385678
  WF centre and spread    7  (  0.902512, -0.902512, -0.902512 )     1.14385672
  Sum of centres and spreads ( -0.000000, -0.000000, -0.000000 )     4.02804595

     46     0.000E+00     0.0000000542        4.0280459493       0.48  <-- CONV
        O_D=      0.0018945 O_OD=      0.3634562 O_TOT=      4.0280459 <-- SPRD
 Delta: O_D=  0.5005436E-12 O_OD= -0.5001000E-12 O_TOT=  0.0000000E+00 <-- DLTA
 ------------------------------------------------------------------------------
 Cycle:     47
  WF centre and spread    1  ( -0.000000,  0.000000,  0.000000 )     0.40839082
  WF centre and spread    2  (  0.000000,  0.000000, -0.000000 )     0.30785045
  WF centre and spread    3  (  0.000000, -0.000000, -0.000000 )     0.30785049
  WF centre and spread    4  (  0.000000,  0.000000, -0.000000 )     0.40839121
  WF centre and spread    5  ( -0.000000, -0.000000,  0.000000 )     0.30784948
  WF centre and spread    6  ( -0.902512,  0.902512,  0.902512 )     1.14385678
  WF centre and spread    7  (  0.902512, -0.902512, -0.902512 )     1.14385672
  Sum of centres and spreads ( -0.000000, -0.000000, -0.000000 )     4.02804595

     47     0.888E-15     0.0000000527        4.0280459493       0.48  <-- CONV
        O_D=      0.0018945 O_OD=      0.3634562 O_TOT=      4.0280459 <-- SPRD
 Delta: O_D=  0.2550096E-12 O_OD= -0.2545741E-12 O_TOT=  0.8881784E-15 <-- DLTA
 ------------------------------------------------------------------------------
 Cycle:     48
  WF centre and spread    1  ( -0.000000,  0.000000,  0.000000 )     0.40839082
  WF centre and spread    2  (  0.000000,  0.000000, -0.000000 )     0.30785045
  WF centre and spread    3  (  0.000000, -0.000000, -0.000000 )     0.30785049
  WF centre and spread    4  (  0.000000,  0.000000, -0.000000 )     0.40839121
  WF centre and spread    5  ( -0.000000, -0.000000,  0.000000 )     0.30784948
  WF centre and spread    6  ( -0.902512,  0.902512,  0.902512 )     1.14385678
  WF centre and spread    7  (  0.902512, -0.902512, -0.902512 )     1.14385672
  Sum of centres and spreads ( -0.000000, -0.000000, -0.000000 )     4.02804595

     48    -0.888E-15     0.0000000519        4.0280459493       0.49  <-- CONV
        O_D=      0.0018945 O_OD=      0.3634562 O_TOT=      4.0280459 <-- SPRD
 Delta: O_D=  0.1497727E-11 O_OD= -0.1498857E-11 O_TOT= -0.8881784E-15 <-- DLTA
 ------------------------------------------------------------------------------
 Cycle:     49
  WF centre and spread    1  ( -0.000000,  0.000000,  0.000000 )     0.40839082
  WF centre and spread    2  (  0.000000,  0.000000, -0.000000 )     0.30785045
  WF centre and spread    3  (  0.000000, -0.000000, -0.000000 )     0.30785049
  WF centre and spread    4  (  0.000000,  0.000000, -0.000000 )     0.40839121
  WF centre and spread    5  ( -0.000000, -0.000000,  0.000000 )     0.30784948
  WF centre and spread    6  ( -0.902512,  0.902512,  0.902512 )     1.14385678
  WF centre and spread    7  (  0.902512, -0.902512, -0.902512 )     1.14385672
  Sum of centres and spreads ( -0.000000, -0.000000, -0.000000 )     4.02804595

     49    -0.888E-15     0.0000000476        4.0280459493       0.50  <-- CONV
        O_D=      0.0018945 O_OD=      0.3634562 O_TOT=      4.0280459 <-- SPRD
 Delta: O_D=  0.1728240E-13 O_OD= -0.1831868E-13 O_TOT= -0.8881784E-15 <-- DLTA
 ------------------------------------------------------------------------------
 Cycle:     50
  WF centre and spread    1  ( -0.000000,  0.000000,  0.000000 )     0.40839082
  WF centre and spread    2  (  0.000000,  0.000000, -0.000000 )     0.30785045
  WF centre and spread    3  (  0.000000, -0.000000, -0.000000 )     0.30785049
  WF centre and spread    4  (  0.000000,  0.000000, -0.000000 )     0.40839121
  WF centre and spread    5  ( -0.000000, -0.000000,  0.000000 )     0.30784948
  WF centre and spread    6  ( -0.902512,  0.902512,  0.902512 )     1.14385678
  WF centre and spread    7  (  0.902512, -0.902512, -0.902512 )     1.14385672
  Sum of centres and spreads ( -0.000000, -0.000000, -0.000000 )     4.02804595

     50    -0.888E-15     0.0000000476        4.0280459493       0.50  <-- CONV
        O_D=      0.0018945 O_OD=      0.3634562 O_TOT=      4.0280459 <-- SPRD
 Delta: O_D=  0.6409059E-12 O_OD= -0.6417089E-12 O_TOT= -0.8881784E-15 <-- DLTA
 ------------------------------------------------------------------------------
 Cycle:     51
  WF centre and spread    1  ( -0.000000,  0.000000,  0.000000 )     0.40839082
  WF centre and spread    2  (  0.000000,  0.000000, -0.000000 )     0.30785045
  WF centre and spread    3  (  0.000000, -0.000000, -0.000000 )     0.30785049
  WF centre and spread    4  (  0.000000,  0.000000, -0.000000 )     0.40839121
  WF centre and spread    5  ( -0.000000, -0.000000,  0.000000 )     0.30784948
  WF centre and spread    6  ( -0.902512,  0.902512,  0.902512 )     1.14385678
  WF centre and spread    7  (  0.902512, -0.902512, -0.902512 )     1.14385672
  Sum of centres and spreads ( -0.000000, -0.000000, -0.000000 )     4.02804595

     51    -0.888E-15     0.0000000462        4.0280459493       0.50  <-- CONV
        O_D=      0.0018945 O_OD=      0.3634562 O_TOT=      4.0280459 <-- SPRD
 Delta: O_D=  0.9309853E-12 O_OD= -0.9313106E-12 O_TOT= -0.8881784E-15 <-- DLTA
 ------------------------------------------------------------------------------
 Cycle:     52
  WF centre and spread    1  ( -0.000000,  0.000000,  0.000000 )     0.40839082
  WF centre and spread    2  (  0.000000,  0.000000, -0.000000 )     0.30785045
  WF centre and spread    3  (  0.000000, -0.000000, -0.000000 )     0.30785049
  WF centre and spread    4  (  0.000000,  0.000000, -0.000000 )     0.40839121
  WF centre and spread    5  ( -0.000000, -0.000000,  0.000000 )     0.30784948
  WF centre and spread    6  ( -0.902512,  0.902512,  0.902512 )     1.14385678
  WF centre and spread    7  (  0.902512, -0.902512, -0.902512 )     1.14385672
  Sum of centres and spreads ( -0.000000, -0.000000, -0.000000 )     4.02804595

     52     0.444E-14     0.0000000442        4.0280459493       0.51  <-- CONV
        O_D=      0.0018945 O_OD=      0.3634562 O_TOT=      4.0280459 <-- SPRD
 Delta: O_D=  0.2630641E-12 O_OD= -0.2588485E-12 O_TOT=  0.4440892E-14 <-- DLTA
 ------------------------------------------------------------------------------
 Cycle:     53
  WF centre and spread    1  ( -0.000000,  0.000000,  0.000000 )     0.40839082
  WF centre and spread    2  (  0.000000,  0.000000, -0.000000 )     0.30785045
  WF centre and spread    3  (  0.000000, -0.000000, -0.000000 )     0.30785049
  WF centre and spread    4  (  0.000000,  0.000000, -0.000000 )     0.40839121
  WF centre and spread    5  ( -0.000000, -0.000000,  0.000000 )     0.30784948
  WF centre and spread    6  ( -0.902512,  0.902512,  0.902512 )     1.14385678
  WF centre and spread    7  (  0.902512, -0.902512, -0.902512 )     1.14385672
  Sum of centres and spreads ( -0.000000, -0.000000, -0.000000 )     4.02804595

     53    -0.266E-14     0.0000000437        4.0280459493       0.52  <-- CONV
        O_D=      0.0018945 O_OD=      0.3634562 O_TOT=      4.0280459 <-- SPRD
 Delta: O_D=  0.1497352E-11 O_OD= -0.1500244E-11 O_TOT= -0.2664535E-14 <-- DLTA
 ------------------------------------------------------------------------------
 Cycle:     54
  WF centre and spread    1  ( -0.000000,  0.000000,  0.000000 )     0.40839082
  WF centre and spread    2  (  0.000000,  0.000000, -0.000000 )     0.30785045
  WF centre and spread    3  (  0.000000, -0.000000, -0.000000 )     0.30785049
  WF centre and spread    4  (  0.000000,  0.000000, -0.000000 )     0.40839121
  WF centre and spread    5  ( -0.000000, -0.000000,  0.000000 )     0.30784948
  WF centre and spread    6  ( -0.902512,  0.902512,  0.902512 )     1.14385678
  WF centre and spread    7  (  0.902512, -0.902512, -0.902512 )     1.14385672
  Sum of centres and spreads ( -0.000000, -0.000000, -0.000000 )     4.02804595

     54    -0.266E-14     0.0000000406        4.0280459493       0.52  <-- CONV
        O_D=      0.0018945 O_OD=      0.3634562 O_TOT=      4.0280459 <-- SPRD
 Delta: O_D=  0.1646990E-11 O_OD= -0.1649514E-11 O_TOT= -0.2664535E-14 <-- DLTA
 ------------------------------------------------------------------------------
 Cycle:     55
  WF centre and spread    1  ( -0.000000,  0.000000,  0.000000 )     0.40839082
  WF centre and spread    2  (  0.000000,  0.000000, -0.000000 )     0.30785045
  WF centre and spread    3  (  0.000000, -0.000000, -0.000000 )     0.30785049
  WF centre and spread    4  (  0.000000,  0.000000, -0.000000 )     0.40839121
  WF centre and spread    5  ( -0.000000, -0.000000,  0.000000 )     0.30784948
  WF centre and spread    6  ( -0.902512,  0.902512,  0.902512 )     1.14385678
  WF centre and spread    7  (  0.902512, -0.902512, -0.902512 )     1.14385672
  Sum of centres and spreads ( -0.000000, -0.000000, -0.000000 )     4.02804595

     55    -0.888E-15     0.0000000374        4.0280459493       0.52  <-- CONV
        O_D=      0.0018945 O_OD=      0.3634562 O_TOT=      4.0280459 <-- SPRD
 Delta: O_D=  0.3635339E-12 O_OD= -0.3643197E-12 O_TOT= -0.8881784E-15 <-- DLTA
 ------------------------------------------------------------------------------
 Cycle:     56
  WF centre and spread    1  ( -0.000000,  0.000000,  0.000000 )     0.40839082
  WF centre and spread    2  (  0.000000,  0.000000, -0.000000 )     0.30785045
  WF centre and spread    3  (  0.000000, -0.000000, -0.000000 )     0.30785049
  WF centre and spread    4  (  0.000000,  0.000000, -0.000000 )     0.40839121
  WF centre and spread    5  ( -0.000000, -0.000000,  0.000000 )     0.30784948
  WF centre and spread    6  ( -0.902512,  0.902512,  0.902512 )     1.14385678
  WF centre and spread    7  (  0.902512, -0.902512, -0.902512 )     1.14385672
  Sum of centres and spreads ( -0.000000, -0.000000, -0.000000 )     4.02804595

     56     0.000E+00     0.0000000369        4.0280459493       0.53  <-- CONV
        O_D=      0.0018945 O_OD=      0.3634562 O_TOT=      4.0280459 <-- SPRD
 Delta: O_D=  0.2407688E-13 O_OD= -0.2425837E-13 O_TOT=  0.0000000E+00 <-- DLTA
 ------------------------------------------------------------------------------
 Cycle:     57
  WF centre and spread    1  ( -0.000000,  0.000000,  0.000000 )     0.40839082
  WF centre and spread    2  (  0.000000,  0.000000, -0.000000 )     0.30785045
  WF centre and spread    3  (  0.000000, -0.000000, -0.000000 )     0.30785049
  WF centre and spread    4  (  0.000000,  0.000000, -0.000000 )     0.40839121
  WF centre and spread    5  ( -0.000000, -0.000000,  0.000000 )     0.30784948
  WF centre and spread    6  ( -0.902512,  0.902512,  0.902512 )     1.14385678
  WF centre and spread    7  (  0.902512, -0.902512, -0.902512 )     1.14385672
  Sum of centres and spreads ( -0.000000, -0.000000, -0.000000 )     4.02804595

     57     0.178E-14     0.0000000368        4.0280459493       0.54  <-- CONV
        O_D=      0.0018945 O_OD=      0.3634562 O_TOT=      4.0280459 <-- SPRD
 Delta: O_D=  0.1629439E-12 O_OD= -0.1613709E-12 O_TOT=  0.1776357E-14 <-- DLTA
 ------------------------------------------------------------------------------
 Cycle:     58
  WF centre and spread    1  ( -0.000000,  0.000000,  0.000000 )     0.40839082
  WF centre and spread    2  (  0.000000,  0.000000, -0.000000 )     0.30785045
  WF centre and spread    3  (  0.000000, -0.000000, -0.000000 )     0.30785049
  WF centre and spread    4  (  0.000000,  0.000000, -0.000000 )     0.40839121
  WF centre and spread    5  ( -0.000000, -0.000000,  0.000000 )     0.30784948
  WF centre and spread    6  ( -0.902512,  0.902512,  0.902512 )     1.14385678
  WF centre and spread    7  (  0.902512, -0.902512, -0.902512 )     1.14385672
  Sum of centres and spreads ( -0.000000, -0.000000, -0.000000 )     4.02804595

     58     0.266E-14     0.0000000366        4.0280459493       0.55  <-- CONV
        O_D=      0.0018945 O_OD=      0.3634562 O_TOT=      4.0280459 <-- SPRD
 Delta: O_D=  0.2588426E-12 O_OD= -0.2557399E-12 O_TOT=  0.2664535E-14 <-- DLTA
 ------------------------------------------------------------------------------
 Cycle:     59
  WF centre and spread    1  ( -0.000000,  0.000000,  0.000000 )     0.40839082
  WF centre and spread    2  (  0.000000,  0.000000, -0.000000 )     0.30785045
  WF centre and spread    3  (  0.000000, -0.000000, -0.000000 )     0.30785049
  WF centre and spread    4  (  0.000000,  0.000000, -0.000000 )     0.40839121
  WF centre and spread    5  ( -0.000000, -0.000000,  0.000000 )     0.30784948
  WF centre and spread    6  ( -0.902512,  0.902512,  0.902512 )     1.14385678
  WF centre and spread    7  (  0.902512, -0.902512, -0.902512 )     1.14385672
  Sum of centres and spreads ( -0.000000, -0.000000, -0.000000 )     4.02804595

     59    -0.444E-14     0.0000000362        4.0280459493       0.55  <-- CONV
        O_D=      0.0018945 O_OD=      0.3634562 O_TOT=      4.0280459 <-- SPRD
 Delta: O_D=  0.1769636E-11 O_OD= -0.1774025E-11 O_TOT= -0.4440892E-14 <-- DLTA
 ------------------------------------------------------------------------------
 Cycle:     60
  WF centre and spread    1  ( -0.000000,  0.000000,  0.000000 )     0.40839082
  WF centre and spread    2  (  0.000000,  0.000000, -0.000000 )     0.30785045
  WF centre and spread    3  (  0.000000, -0.000000, -0.000000 )     0.30785049
  WF centre and spread    4  (  0.000000,  0.000000, -0.000000 )     0.40839121
  WF centre and spread    5  ( -0.000000, -0.000000,  0.000000 )     0.30784948
  WF centre and spread    6  ( -0.902512,  0.902512,  0.902512 )     1.14385678
  WF centre and spread    7  (  0.902512, -0.902512, -0.902512 )     1.14385672
  Sum of centres and spreads ( -0.000000, -0.000000, -0.000000 )     4.02804595

     60    -0.178E-14     0.0000000336        4.0280459493       0.56  <-- CONV
        O_D=      0.0018945 O_OD=      0.3634562 O_TOT=      4.0280459 <-- SPRD
 Delta: O_D=  0.1898529E-11 O_OD= -0.1900757E-11 O_TOT= -0.1776357E-14 <-- DLTA
 ------------------------------------------------------------------------------
 Cycle:     61
  WF centre and spread    1  ( -0.000000,  0.000000,  0.000000 )     0.40839082
  WF centre and spread    2  (  0.000000,  0.000000, -0.000000 )     0.30785045
  WF centre and spread    3  (  0.000000, -0.000000, -0.000000 )     0.30785049
  WF centre and spread    4  (  0.000000,  0.000000, -0.000000 )     0.40839121
  WF centre and spread    5  ( -0.000000, -0.000000,  0.000000 )     0.30784948
  WF centre and spread    6  ( -0.902512,  0.902512,  0.902512 )     1.14385678
  WF centre and spread    7  (  0.902512, -0.902512, -0.902512 )     1.14385672
  Sum of centres and spreads ( -0.000000, -0.000000, -0.000000 )     4.02804595

     61     0.178E-14     0.0000000309        4.0280459493       0.56  <-- CONV
        O_D=      0.0018945 O_OD=      0.3634562 O_TOT=      4.0280459 <-- SPRD
 Delta: O_D=  0.1747972E-13 O_OD= -0.1559863E-13 O_TOT=  0.1776357E-14 <-- DLTA
 ------------------------------------------------------------------------------
 Cycle:     62
  WF centre and spread    1  ( -0.000000,  0.000000,  0.000000 )     0.40839082
  WF centre and spread    2  (  0.000000,  0.000000, -0.000000 )     0.30785045
  WF centre and spread    3  (  0.000000, -0.000000, -0.000000 )     0.30785049
  WF centre and spread    4  (  0.000000,  0.000000, -0.000000 )     0.40839121
  WF centre and spread    5  ( -0.000000, -0.000000,  0.000000 )     0.30784948
  WF centre and spread    6  ( -0.902512,  0.902512,  0.902512 )     1.14385678
  WF centre and spread    7  (  0.902512, -0.902512, -0.902512 )     1.14385672
  Sum of centres and spreads ( -0.000000, -0.000000, -0.000000 )     4.02804595

     62    -0.266E-14     0.0000000309        4.0280459493       0.57  <-- CONV
        O_D=      0.0018945 O_OD=      0.3634562 O_TOT=      4.0280459 <-- SPRD
 Delta: O_D=  0.7555354E-12 O_OD= -0.7582268E-12 O_TOT= -0.2664535E-14 <-- DLTA
 ------------------------------------------------------------------------------
 Cycle:     63
  WF centre and spread    1  ( -0.000000,  0.000000,  0.000000 )     0.40839082
  WF centre and spread    2  (  0.000000,  0.000000, -0.000000 )     0.30785045
  WF centre and spread    3  (  0.000000, -0.000000, -0.000000 )     0.30785049
  WF centre and spread    4  (  0.000000,  0.000000, -0.000000 )     0.40839121
  WF centre and spread    5  ( -0.000000, -0.000000,  0.000000 )     0.30784948
  WF centre and spread    6  ( -0.902512,  0.902512,  0.902512 )     1.14385678
  WF centre and spread    7  (  0.902512, -0.902512, -0.902512 )     1.14385672
  Sum of centres and spreads ( -0.000000, -0.000000, -0.000000 )     4.02804595

     63     0.888E-15     0.0000000300        4.0280459493       0.57  <-- CONV
        O_D=      0.0018945 O_OD=      0.3634562 O_TOT=      4.0280459 <-- SPRD
 Delta: O_D=  0.2917176E-13 O_OD= -0.2831069E-13 O_TOT=  0.8881784E-15 <-- DLTA
 ------------------------------------------------------------------------------
 Cycle:     64
  WF centre and spread    1  ( -0.000000,  0.000000,  0.000000 )     0.40839082
  WF centre and spread    2  (  0.000000,  0.000000, -0.000000 )     0.30785045
  WF centre and spread    3  (  0.000000, -0.000000, -0.000000 )     0.30785049
  WF centre and spread    4  (  0.000000,  0.000000, -0.000000 )     0.40839121
  WF centre and spread    5  ( -0.000000, -0.000000,  0.000000 )     0.30784948
  WF centre and spread    6  ( -0.902512,  0.902512,  0.902512 )     1.14385678
  WF centre and spread    7  (  0.902512, -0.902512, -0.902512 )     1.14385672
  Sum of centres and spreads ( -0.000000, -0.000000, -0.000000 )     4.02804595

     64    -0.888E-15     0.0000000300        4.0280459493       0.58  <-- CONV
        O_D=      0.0018945 O_OD=      0.3634562 O_TOT=      4.0280459 <-- SPRD
 Delta: O_D=  0.1467643E-11 O_OD= -0.1468214E-11 O_TOT= -0.8881784E-15 <-- DLTA
[...]
  Sum of centres and spreads ( -0.000000, -0.000000, -0.000000 )     4.02804595

    182    -0.266E-14     0.0000000087        4.0280459493       1.27  <-- CONV
        O_D=      0.0018945 O_OD=      0.3634562 O_TOT=      4.0280459 <-- SPRD
 Delta: O_D=  0.3955170E-15 O_OD= -0.3275158E-14 O_TOT= -0.2664535E-14 <-- DLTA
 ------------------------------------------------------------------------------
 Cycle:    183
  WF centre and spread    1  ( -0.000000,  0.000000,  0.000000 )     0.40839082
  WF centre and spread    2  (  0.000000,  0.000000, -0.000000 )     0.30785045
  WF centre and spread    3  (  0.000000, -0.000000, -0.000000 )     0.30785049
  WF centre and spread    4  (  0.000000,  0.000000, -0.000000 )     0.40839121
  WF centre and spread    5  ( -0.000000, -0.000000,  0.000000 )     0.30784948
  WF centre and spread    6  ( -0.902512,  0.902512,  0.902512 )     1.14385678
  WF centre and spread    7  (  0.902512, -0.902512, -0.902512 )     1.14385672
  Sum of centres and spreads ( -0.000000, -0.000000, -0.000000 )     4.02804595

    183     0.888E-15     0.0000000087        4.0280459493       1.28  <-- CONV
        O_D=      0.0018945 O_OD=      0.3634562 O_TOT=      4.0280459 <-- SPRD
 Delta: O_D=  0.1749902E-15 O_OD=  0.2775558E-15 O_TOT=  0.8881784E-15 <-- DLTA
 ------------------------------------------------------------------------------
 Cycle:    184
  WF centre and spread    1  ( -0.000000,  0.000000,  0.000000 )     0.40839082
  WF centre and spread    2  (  0.000000,  0.000000, -0.000000 )     0.30785045
  WF centre and spread    3  (  0.000000, -0.000000, -0.000000 )     0.30785049
  WF centre and spread    4  (  0.000000,  0.000000, -0.000000 )     0.40839121
  WF centre and spread    5  ( -0.000000, -0.000000,  0.000000 )     0.30784948
  WF centre and spread    6  ( -0.902512,  0.902512,  0.902512 )     1.14385678
  WF centre and spread    7  (  0.902512, -0.902512, -0.902512 )     1.14385672
  Sum of centres and spreads ( -0.000000, -0.000000, -0.000000 )     4.02804595

    184    -0.888E-15     0.0000000087        4.0280459493       1.29  <-- CONV
        O_D=      0.0018945 O_OD=      0.3634562 O_TOT=      4.0280459 <-- SPRD
 Delta: O_D=  0.1472347E-15 O_OD= -0.6106227E-15 O_TOT= -0.8881784E-15 <-- DLTA
 ------------------------------------------------------------------------------
 Cycle:    185
  WF centre and spread    1  ( -0.000000,  0.000000,  0.000000 )     0.40839082
  WF centre and spread    2  (  0.000000,  0.000000, -0.000000 )     0.30785045
  WF centre and spread    3  (  0.000000, -0.000000, -0.000000 )     0.30785049
  WF centre and spread    4  (  0.000000,  0.000000, -0.000000 )     0.40839121
  WF centre and spread    5  ( -0.000000, -0.000000,  0.000000 )     0.30784948
  WF centre and spread    6  ( -0.902512,  0.902512,  0.902512 )     1.14385678
  WF centre and spread    7  (  0.902512, -0.902512, -0.902512 )     1.14385672
  Sum of centres and spreads ( -0.000000, -0.000000, -0.000000 )     4.02804595

    185    -0.888E-15     0.0000000087        4.0280459493       1.30  <-- CONV
        O_D=      0.0018945 O_OD=      0.3634562 O_TOT=      4.0280459 <-- SPRD
 Delta: O_D=  0.1444157E-15 O_OD= -0.1276756E-14 O_TOT= -0.8881784E-15 <-- DLTA
 ------------------------------------------------------------------------------
 Cycle:    186
  WF centre and spread    1  ( -0.000000,  0.000000,  0.000000 )     0.40839082
  WF centre and spread    2  (  0.000000,  0.000000, -0.000000 )     0.30785045
  WF centre and spread    3  (  0.000000, -0.000000, -0.000000 )     0.30785049
  WF centre and spread    4  (  0.000000,  0.000000, -0.000000 )     0.40839121
  WF centre and spread    5  ( -0.000000, -0.000000,  0.000000 )     0.30784948
  WF centre and spread    6  ( -0.902512,  0.902512,  0.902512 )     1.14385678
  WF centre and spread    7  (  0.902512, -0.902512, -0.902512 )     1.14385672
  Sum of centres and spreads ( -0.000000, -0.000000, -0.000000 )     4.02804595

    186     0.178E-14     0.0000000087        4.0280459493       1.30  <-- CONV
        O_D=      0.0018945 O_OD=      0.3634562 O_TOT=      4.0280459 <-- SPRD
 Delta: O_D=  0.1322727E-15 O_OD=  0.1942890E-14 O_TOT=  0.1776357E-14 <-- DLTA
 ------------------------------------------------------------------------------
 Cycle:    187
  WF centre and spread    1  ( -0.000000,  0.000000,  0.000000 )     0.40839082
  WF centre and spread    2  (  0.000000,  0.000000, -0.000000 )     0.30785045
  WF centre and spread    3  (  0.000000, -0.000000, -0.000000 )     0.30785049
  WF centre and spread    4  (  0.000000,  0.000000, -0.000000 )     0.40839121
  WF centre and spread    5  ( -0.000000, -0.000000,  0.000000 )     0.30784948
  WF centre and spread    6  ( -0.902512,  0.902512,  0.902512 )     1.14385678
  WF centre and spread    7  (  0.902512, -0.902512, -0.902512 )     1.14385672
  Sum of centres and spreads ( -0.000000, -0.000000, -0.000000 )     4.02804595

    187     0.888E-15     0.0000000087        4.0280459493       1.31  <-- CONV
        O_D=      0.0018945 O_OD=      0.3634562 O_TOT=      4.0280459 <-- SPRD
 Delta: O_D=  0.1732555E-15 O_OD=  0.2220446E-15 O_TOT=  0.8881784E-15 <-- DLTA
 ------------------------------------------------------------------------------
 Cycle:    188
  WF centre and spread    1  ( -0.000000,  0.000000,  0.000000 )     0.40839082
  WF centre and spread    2  (  0.000000,  0.000000, -0.000000 )     0.30785045
  WF centre and spread    3  (  0.000000, -0.000000, -0.000000 )     0.30785049
  WF centre and spread    4  (  0.000000,  0.000000, -0.000000 )     0.40839121
  WF centre and spread    5  ( -0.000000, -0.000000,  0.000000 )     0.30784948
  WF centre and spread    6  ( -0.902512,  0.902512,  0.902512 )     1.14385678
  WF centre and spread    7  (  0.902512, -0.902512, -0.902512 )     1.14385672
  Sum of centres and spreads ( -0.000000, -0.000000, -0.000000 )     4.02804595

    188    -0.888E-15     0.0000000087        4.0280459493       1.32  <-- CONV
        O_D=      0.0018945 O_OD=      0.3634562 O_TOT=      4.0280459 <-- SPRD
 Delta: O_D=  0.3933485E-15 O_OD= -0.7216450E-15 O_TOT= -0.8881784E-15 <-- DLTA
 ------------------------------------------------------------------------------
 Cycle:    189
  WF centre and spread    1  ( -0.000000,  0.000000,  0.000000 )     0.40839082
  WF centre and spread    2  (  0.000000,  0.000000, -0.000000 )     0.30785045
  WF centre and spread    3  (  0.000000, -0.000000, -0.000000 )     0.30785049
  WF centre and spread    4  (  0.000000,  0.000000, -0.000000 )     0.40839121
  WF centre and spread    5  ( -0.000000, -0.000000,  0.000000 )     0.30784948
  WF centre and spread    6  ( -0.902512,  0.902512,  0.902512 )     1.14385678
  WF centre and spread    7  (  0.902512, -0.902512, -0.902512 )     1.14385672
  Sum of centres and spreads ( -0.000000, -0.000000, -0.000000 )     4.02804595

    189     0.000E+00     0.0000000087        4.0280459493       1.32  <-- CONV
        O_D=      0.0018945 O_OD=      0.3634562 O_TOT=      4.0280459 <-- SPRD
 Delta: O_D=  0.2387413E-15 O_OD= -0.1054712E-14 O_TOT=  0.0000000E+00 <-- DLTA
 ------------------------------------------------------------------------------
 Cycle:    190
  WF centre and spread    1  ( -0.000000,  0.000000,  0.000000 )     0.40839082
  WF centre and spread    2  (  0.000000,  0.000000, -0.000000 )     0.30785045
  WF centre and spread    3  (  0.000000, -0.000000, -0.000000 )     0.30785049
  WF centre and spread    4  (  0.000000,  0.000000, -0.000000 )     0.40839121
  WF centre and spread    5  ( -0.000000, -0.000000,  0.000000 )     0.30784948
  WF centre and spread    6  ( -0.902512,  0.902512,  0.902512 )     1.14385678
  WF centre and spread    7  (  0.902512, -0.902512, -0.902512 )     1.14385672
  Sum of centres and spreads ( -0.000000, -0.000000, -0.000000 )     4.02804595

    190     0.888E-15     0.0000000087        4.0280459493       1.33  <-- CONV
        O_D=      0.0018945 O_OD=      0.3634562 O_TOT=      4.0280459 <-- SPRD
 Delta: O_D=  0.2983724E-15 O_OD=  0.9992007E-15 O_TOT=  0.8881784E-15 <-- DLTA
 ------------------------------------------------------------------------------
 Cycle:    191
  WF centre and spread    1  ( -0.000000,  0.000000,  0.000000 )     0.40839082
  WF centre and spread    2  (  0.000000,  0.000000, -0.000000 )     0.30785045
  WF centre and spread    3  (  0.000000, -0.000000, -0.000000 )     0.30785049
  WF centre and spread    4  (  0.000000,  0.000000, -0.000000 )     0.40839121
  WF centre and spread    5  ( -0.000000, -0.000000,  0.000000 )     0.30784948
  WF centre and spread    6  ( -0.902512,  0.902512,  0.902512 )     1.14385678
  WF centre and spread    7  (  0.902512, -0.902512, -0.902512 )     1.14385672
  Sum of centres and spreads ( -0.000000, -0.000000, -0.000000 )     4.02804595

    191     0.888E-15     0.0000000087        4.0280459493       1.34  <-- CONV
        O_D=      0.0018945 O_OD=      0.3634562 O_TOT=      4.0280459 <-- SPRD
 Delta: O_D=  0.1945059E-15 O_OD=  0.8326673E-15 O_TOT=  0.8881784E-15 <-- DLTA
 ------------------------------------------------------------------------------
 Cycle:    192
  WF centre and spread    1  ( -0.000000,  0.000000,  0.000000 )     0.40839082
  WF centre and spread    2  (  0.000000,  0.000000, -0.000000 )     0.30785045
  WF centre and spread    3  (  0.000000, -0.000000, -0.000000 )     0.30785049
  WF centre and spread    4  (  0.000000,  0.000000, -0.000000 )     0.40839121
  WF centre and spread    5  ( -0.000000, -0.000000,  0.000000 )     0.30784948
  WF centre and spread    6  ( -0.902512,  0.902512,  0.902512 )     1.14385678
  WF centre and spread    7  (  0.902512, -0.902512, -0.902512 )     1.14385672
  Sum of centres and spreads ( -0.000000, -0.000000, -0.000000 )     4.02804595

    192     0.888E-15     0.0000000087        4.0280459493       1.34  <-- CONV
        O_D=      0.0018945 O_OD=      0.3634562 O_TOT=      4.0280459 <-- SPRD
 Delta: O_D=  0.2966377E-15 O_OD=  0.2775558E-15 O_TOT=  0.8881784E-15 <-- DLTA
 ------------------------------------------------------------------------------
 Cycle:    193
  WF centre and spread    1  ( -0.000000,  0.000000,  0.000000 )     0.40839082
  WF centre and spread    2  (  0.000000,  0.000000, -0.000000 )     0.30785045
  WF centre and spread    3  (  0.000000, -0.000000, -0.000000 )     0.30785049
  WF centre and spread    4  (  0.000000,  0.000000, -0.000000 )     0.40839121
  WF centre and spread    5  ( -0.000000, -0.000000,  0.000000 )     0.30784948
  WF centre and spread    6  ( -0.902512,  0.902512,  0.902512 )     1.14385678
  WF centre and spread    7  (  0.902512, -0.902512, -0.902512 )     1.14385672
  Sum of centres and spreads ( -0.000000, -0.000000, -0.000000 )     4.02804595

    193     0.266E-14     0.0000000087        4.0280459493       1.35  <-- CONV
        O_D=      0.0018945 O_OD=      0.3634562 O_TOT=      4.0280459 <-- SPRD
 Delta: O_D=  0.5947933E-15 O_OD=  0.2498002E-14 O_TOT=  0.2664535E-14 <-- DLTA
 ------------------------------------------------------------------------------
 Cycle:    194
  WF centre and spread    1  ( -0.000000,  0.000000,  0.000000 )     0.40839082
  WF centre and spread    2  (  0.000000,  0.000000, -0.000000 )     0.30785045
  WF centre and spread    3  (  0.000000, -0.000000, -0.000000 )     0.30785049
  WF centre and spread    4  (  0.000000,  0.000000, -0.000000 )     0.40839121
  WF centre and spread    5  ( -0.000000, -0.000000,  0.000000 )     0.30784948
  WF centre and spread    6  ( -0.902512,  0.902512,  0.902512 )     1.14385678
  WF centre and spread    7  (  0.902512, -0.902512, -0.902512 )     1.14385672
  Sum of centres and spreads ( -0.000000, -0.000000, -0.000000 )     4.02804595

    194    -0.888E-15     0.0000000087        4.0280459493       1.36  <-- CONV
        O_D=      0.0018945 O_OD=      0.3634562 O_TOT=      4.0280459 <-- SPRD
 Delta: O_D=  0.2957766E-12 O_OD= -0.2968736E-12 O_TOT= -0.8881784E-15 <-- DLTA
 ------------------------------------------------------------------------------
 Cycle:    195
  WF centre and spread    1  ( -0.000000,  0.000000,  0.000000 )     0.40839082
  WF centre and spread    2  (  0.000000,  0.000000, -0.000000 )     0.30785045
  WF centre and spread    3  (  0.000000, -0.000000, -0.000000 )     0.30785049
  WF centre and spread    4  (  0.000000,  0.000000, -0.000000 )     0.40839121
  WF centre and spread    5  ( -0.000000, -0.000000,  0.000000 )     0.30784948
  WF centre and spread    6  ( -0.902512,  0.902512,  0.902512 )     1.14385678
  WF centre and spread    7  (  0.902512, -0.902512, -0.902512 )     1.14385672
  Sum of centres and spreads ( -0.000000, -0.000000, -0.000000 )     4.02804595

    195    -0.355E-14     0.0000000086        4.0280459493       1.36  <-- CONV
        O_D=      0.0018945 O_OD=      0.3634562 O_TOT=      4.0280459 <-- SPRD
 Delta: O_D=  0.2943472E-12 O_OD= -0.2978728E-12 O_TOT= -0.3552714E-14 <-- DLTA
 ------------------------------------------------------------------------------
 Cycle:    196
  WF centre and spread    1  ( -0.000000,  0.000000,  0.000000 )     0.40839082
  WF centre and spread    2  (  0.000000,  0.000000, -0.000000 )     0.30785045
  WF centre and spread    3  (  0.000000, -0.000000, -0.000000 )     0.30785049
  WF centre and spread    4  (  0.000000,  0.000000, -0.000000 )     0.40839121
  WF centre and spread    5  ( -0.000000, -0.000000,  0.000000 )     0.30784948
  WF centre and spread    6  ( -0.902512,  0.902512,  0.902512 )     1.14385678
  WF centre and spread    7  (  0.902512, -0.902512, -0.902512 )     1.14385672
  Sum of centres and spreads ( -0.000000, -0.000000, -0.000000 )     4.02804595

    196     0.355E-14     0.0000000085        4.0280459493       1.37  <-- CONV
        O_D=      0.0018945 O_OD=      0.3634562 O_TOT=      4.0280459 <-- SPRD
 Delta: O_D=  0.5596652E-15 O_OD=  0.2997602E-14 O_TOT=  0.3552714E-14 <-- DLTA
 ------------------------------------------------------------------------------
 Cycle:    197
  WF centre and spread    1  ( -0.000000,  0.000000,  0.000000 )     0.40839082
  WF centre and spread    2  (  0.000000,  0.000000, -0.000000 )     0.30785045
  WF centre and spread    3  (  0.000000, -0.000000, -0.000000 )     0.30785049
  WF centre and spread    4  (  0.000000,  0.000000, -0.000000 )     0.40839121
  WF centre and spread    5  ( -0.000000, -0.000000,  0.000000 )     0.30784948
  WF centre and spread    6  ( -0.902512,  0.902512,  0.902512 )     1.14385678
  WF centre and spread    7  (  0.902512, -0.902512, -0.902512 )     1.14385672
  Sum of centres and spreads ( -0.000000, -0.000000, -0.000000 )     4.02804595

    197     0.000E+00     0.0000000085        4.0280459493       1.37  <-- CONV
        O_D=      0.0018945 O_OD=      0.3634562 O_TOT=      4.0280459 <-- SPRD
 Delta: O_D=  0.2929293E-12 O_OD= -0.2930989E-12 O_TOT=  0.0000000E+00 <-- DLTA
 ------------------------------------------------------------------------------
 Cycle:    198
  WF centre and spread    1  ( -0.000000,  0.000000,  0.000000 )     0.40839082
  WF centre and spread    2  (  0.000000,  0.000000, -0.000000 )     0.30785045
  WF centre and spread    3  (  0.000000, -0.000000, -0.000000 )     0.30785049
  WF centre and spread    4  (  0.000000,  0.000000, -0.000000 )     0.40839121
  WF centre and spread    5  ( -0.000000, -0.000000,  0.000000 )     0.30784948
  WF centre and spread    6  ( -0.902512,  0.902512,  0.902512 )     1.14385678
  WF centre and spread    7  (  0.902512, -0.902512, -0.902512 )     1.14385672
  Sum of centres and spreads ( -0.000000, -0.000000, -0.000000 )     4.02804595

    198     0.000E+00     0.0000000084        4.0280459493       1.38  <-- CONV
        O_D=      0.0018945 O_OD=      0.3634562 O_TOT=      4.0280459 <-- SPRD
 Delta: O_D=  0.2915090E-12 O_OD= -0.2915446E-12 O_TOT=  0.0000000E+00 <-- DLTA
 ------------------------------------------------------------------------------
 Cycle:    199
  WF centre and spread    1  ( -0.000000,  0.000000,  0.000000 )     0.40839082
  WF centre and spread    2  (  0.000000,  0.000000, -0.000000 )     0.30785045
  WF centre and spread    3  (  0.000000, -0.000000, -0.000000 )     0.30785049
  WF centre and spread    4  (  0.000000,  0.000000, -0.000000 )     0.40839121
  WF centre and spread    5  ( -0.000000, -0.000000,  0.000000 )     0.30784948
  WF centre and spread    6  ( -0.902512,  0.902512,  0.902512 )     1.14385678
  WF centre and spread    7  (  0.902512, -0.902512, -0.902512 )     1.14385672
  Sum of centres and spreads ( -0.000000, -0.000000, -0.000000 )     4.02804595

    199    -0.266E-14     0.0000000083        4.0280459493       1.38  <-- CONV
        O_D=      0.0018945 O_OD=      0.3634562 O_TOT=      4.0280459 <-- SPRD
 Delta: O_D=  0.2900937E-12 O_OD= -0.2925438E-12 O_TOT= -0.2664535E-14 <-- DLTA
 ------------------------------------------------------------------------------
 Cycle:    200
  WF centre and spread    1  ( -0.000000,  0.000000,  0.000000 )     0.40839082
  WF centre and spread    2  (  0.000000,  0.000000, -0.000000 )     0.30785045
  WF centre and spread    3  (  0.000000, -0.000000, -0.000000 )     0.30785049
  WF centre and spread    4  (  0.000000,  0.000000, -0.000000 )     0.40839121
  WF centre and spread    5  ( -0.000000, -0.000000,  0.000000 )     0.30784948
  WF centre and spread    6  ( -0.902512,  0.902512,  0.902512 )     1.14385678
  WF centre and spread    7  (  0.902512, -0.902512, -0.902512 )     1.14385672
  Sum of centres and spreads ( -0.000000, -0.000000, -0.000000 )     4.02804595

    200    -0.888E-15     0.0000000082        4.0280459493       1.38  <-- CONV
        O_D=      0.0018945 O_OD=      0.3634562 O_TOT=      4.0280459 <-- SPRD
 Delta: O_D=  0.2886782E-12 O_OD= -0.2894907E-12 O_TOT= -0.8881784E-15 <-- DLTA
 ------------------------------------------------------------------------------

 Writing checkpoint file copper.chk... done

 Final State
  WF centre and spread    1  ( -0.000000,  0.000000,  0.000000 )     0.40839082
  WF centre and spread    2  (  0.000000,  0.000000, -0.000000 )     0.30785045
  WF centre and spread    3  (  0.000000, -0.000000, -0.000000 )     0.30785049
  WF centre and spread    4  (  0.000000,  0.000000, -0.000000 )     0.40839121
  WF centre and spread    5  ( -0.000000, -0.000000,  0.000000 )     0.30784948
  WF centre and spread    6  ( -0.902512,  0.902512,  0.902512 )     1.14385678
  WF centre and spread    7  (  0.902512, -0.902512, -0.902512 )     1.14385672
  Sum of centres and spreads ( -0.000000, -0.000000, -0.000000 )     4.02804595

         Spreads (Ang^2)       Omega I      =     3.662695239
        ================       Omega D      =     0.001894489
                               Omega OD     =     0.363456220
    Final Spread (Ang^2)       Omega Total  =     4.028045949
 ------------------------------------------------------------------------------
 Time for wannierise            1.192 (sec)

 Writing checkpoint file copper.chk... done

 Total Execution Time           1.388 (sec)

 *===========================================================================*
 |                             TIMING INFORMATION                            |
 *===========================================================================*
 |    Tag                                                Ncalls      Time (s)|
 |---------------------------------------------------------------------------|
 |kmesh: get                                        :         1         0.100|
 |overlap: read                                     :         1         0.072|
 |dis: main                                         :         1         0.024|
 |wann: main                                        :         1         1.192|
 *---------------------------------------------------------------------------*

 All done: wannier90 exiting
