 
             +---------------------------------------------------+
             |                                                   |
             |                   WANNIER90                       |
             |                                                   |
             +---------------------------------------------------+
             |                                                   |
             |        Welcome to the Maximally-Localized         |
             |        Generalized Wannier Functions code         |
             |            http://www.wannier.org                 |
             |                                                   |
             |  Wannier90 v2.x Authors:                          |
             |    Arash A. Mostofi  (Imperial College London)    |
             |    Giovanni Pizzi    (EPFL)                       |
             |    Ivo Souza         (Universidad del Pais Vasco) |
             |    Jonathan R. Yates (University of Oxford)       |
             |                                                   |
             |  Wannier90 Contributors:                          |
             |    Young-Su Lee       (KIST, S. Korea)            |
             |    Matthew Shelley    (Imperial College London)   |
             |    Nicolas Poilvert   (Penn State University)     |
             |    Raffaello Bianco   (Paris 6 and CNRS)          |
             |    Gabriele Sclauzero (ETH Zurich)                |
             |    David Strubbe (MIT, USA)                       |
             |    Rei Sakuma (Lund University, Sweden)           |
             |    Yusuke Nomura (U. Tokyo, Japan)                |
             |    Takashi Koretsune (Riken, Japan)               |
             |    Yoshiro Nohara (ASMS Co. Ltd., Japan)          |
             |    Ryotaro Arita (Riken, Japan)                   |
             |    Lorenzo Paulatto (UPMC Paris)                  |
             |    Florian Thole (ETH Zurich)                     |
             |    Pablo Garcia Fernandez (Unican, Spain)         |
             |    Dominik Gresch (ETH Zurich)                    |
             |    Samuel Ponce (University of Oxford)            |
             |    Marco Gibertini (EPFL)                         |
             |    Christian Stieger (ETHZ, CH)                   |
             |    Stepan Tsirkin (Universidad del Pais Vasco)    |
             |                                                   |
             |  Wannier77 Authors:                               |
             |    Nicola Marzari    (EPFL)                       |
             |    Ivo Souza         (Universidad del Pais Vasco) |
             |    David Vanderbilt  (Rutgers University)         |
             |                                                   |
             |  Please cite                                      |
             |                                                   |
             |  [ref] "An updated version of Wannier90:          |
             |        A Tool for Obtaining Maximally Localised   |
             |        Wannier Functions", A. A. Mostofi,         |
             |        J. R. Yates, G. Pizzi, Y. S. Lee,          |
             |        I. Souza, D. Vanderbilt and N. Marzari,    |
             |        Comput. Phys. Commun. 185, 2309 (2014)     |
             |        http://dx.doi.org/10.1016/j.cpc.2014.05.003|
             |                                                   |
             |  in any publications arising from the use of      |
             |  this code. For the method please cite            |
             |                                                   |
             |  [ref] "Maximally Localized Generalised Wannier   |
             |         Functions for Composite Energy Bands"     |
             |         N. Marzari and D. Vanderbilt              |
             |         Phys. Rev. B 56 12847 (1997)              |
             |                                                   |
             |  [ref] "Maximally Localized Wannier Functions     |
             |         for Entangled Energy Bands"               |
             |         I. Souza, N. Marzari and D. Vanderbilt    |
             |         Phys. Rev. B 65 035109 (2001)             |
             |                                                   |
             |                                                   |
             | Copyright (c) 1996-2017                           |
             |        Arash A. Mostofi, Jonathan R. Yates,       |
             |        Young-Su Lee, Giovanni Pizzi, Ivo Souza,   |
             |        David Vanderbilt and Nicola Marzari        |
             |                                                   |
             |      Release: 2.1.0+git   13th January 2017       |
             |                                                   |
             | This program is free software; you can            |
             | redistribute it and/or modify it under the terms  |
             | of the GNU General Public License as published by |
             | the Free Software Foundation; either version 2 of |
             | the License, or (at your option) any later version|
             |                                                   |
             | This program is distributed in the hope that it   |
             | will be useful, but WITHOUT ANY WARRANTY; without |
             | even the implied warranty of MERCHANTABILITY or   |
             | FITNESS FOR A PARTICULAR PURPOSE. See the GNU     |
             | General Public License for more details.          |
             |                                                   |
             | You should have received a copy of the GNU General|
             | Public License along with this program; if not,   |
             | write to the Free Software Foundation, Inc.,      |
             | 675 Mass Ave, Cambridge, MA 02139, USA.           |
             |                                                   |
             +---------------------------------------------------+
             |    Execution started on 19Jul2018 at 14:12:44     |
             +---------------------------------------------------+
 
 ******************************************************************************
 * -> Using CODATA 2006 constant values                                       *
 *    (http://physics.nist.gov/cuu/Constants/index.html)                      *
 * -> Using Bohr value from CODATA                                            *
 ******************************************************************************
 

 Running in serial (with parallel executable)
 
                                    ------
                                    SYSTEM
                                    ------
 
                              Lattice Vectors (Ang)
                    a_1    -2.825806   0.000000   2.825806
                    a_2     0.000000   2.825806   2.825806
                    a_3    -2.825806   2.825806   0.000000
 
                   Unit Cell Volume:      45.12915  (Ang^3)
 
                        Reciprocal-Space Vectors (Ang^-1)
                    b_1    -1.111751  -1.111751   1.111751
                    b_2     1.111751   1.111751   1.111751
                    b_3    -1.111751   1.111751  -1.111751
  
 *----------------------------------------------------------------------------*
 |   Site       Fractional Coordinate          Cartesian Coordinate (Ang)     |
 +----------------------------------------------------------------------------+
 | Ga   1   0.00000   0.00000   0.00000   |    0.00000   0.00000   0.00000    |
 | As   1   0.25000   0.25000   0.25000   |   -1.41290   1.41290   1.41290    |
 *----------------------------------------------------------------------------*
  
 *----------------------------------------------------------------------------*
 | Wannier#        Original Centres              Constrained centres          |
 +----------------------------------------------------------------------------+
 |    1     0.25000   0.25000   0.25000   |    0.00000   0.00000   0.00000    |
 *----------------------------------------------------------------------------*
                                ------------
                                K-POINT GRID
                                ------------
  
             Grid size =  4 x  4 x  4      Total points =   64
  
  
 *---------------------------------- MAIN ------------------------------------*
 |  Number of Wannier Functions               :                 4             |
 |  Number of Objective Wannier Functions     :                 1             |
 |  Number of input Bloch states              :                 4             |
 |  Output verbosity (1=low, 5=high)          :                 1             |
 |  Timing Level (1=low, 5=high)              :                 1             |
 |  Optimisation (0=memory, 3=speed)          :                 3             |
 |  Length Unit                               :               Ang             |
 |  Post-processing setup (write *.nnkp)      :                 F             |
 |  Using Gamma-only branch of algorithms     :                 F             |
 *----------------------------------------------------------------------------*
 *------------------------------- WANNIERISE ---------------------------------*
 |  Total number of iterations                :               100             |
 |  Number of CG steps before reset           :                 5             |
 |  Trial step length for line search         :             2.000             |
 |  Convergence tolerence                     :         0.100E-09             |
 |  Convergence window                        :                -1             |
 |  Iterations between writing output         :                 1             |
 |  Iterations between backing up to disk     :               100             |
 |  Write r^2_nm to file                      :                 F             |
 |  Write xyz WF centres to file              :                 F             |
 |  Write on-site energies <0n|H|0n> to file  :                 F             |
 |  Use guiding centre to control phases      :                 F             |
 |  Use phases for initial projections        :                 F             |
 *----------------------------------------------------------------------------*
 Time to read parameters        0.012 (sec)

 *---------------------------------- K-MESH ----------------------------------*
 +----------------------------------------------------------------------------+
 |                    Distance to Nearest-Neighbour Shells                    |
 |                    ------------------------------------                    |
 |          Shell             Distance (Ang^-1)          Multiplicity         |
 |          -----             -----------------          ------------         |
 |             1                   0.481402                      8            |
 |             2                   0.555875                      6            |
 |             3                   0.786127                     12            |
 |             4                   0.921815                     24            |
 |             5                   0.962805                      8            |
 |             6                   1.111751                      6            |
 |             7                   1.211502                     24            |
 |             8                   1.242975                     24            |
 |             9                   1.361611                     24            |
 |            10                   1.444207                     32            |
 |            11                   1.572253                     12            |
 |            12                   1.644302                     48            |
 +----------------------------------------------------------------------------+
 | The b-vectors are chosen automatically                                     |
 | The following shells are used:   1                                         |
 +----------------------------------------------------------------------------+
 |                        Shell   # Nearest-Neighbours                        |
 |                        -----   --------------------                        |
 |                          1               8                                 |
 +----------------------------------------------------------------------------+
 | Completeness relation is fully satisfied [Eq. (B1), PRB 56, 12847 (1997)]  |
 +----------------------------------------------------------------------------+
 |                  b_k Vectors (Ang^-1) and Weights (Ang^2)                  |
 |                  ----------------------------------------                  |
 |            No.         b_k(x)      b_k(y)      b_k(z)        w_b           |
 |            ---        --------------------------------     --------        |
 |             1        -0.277938   -0.277938    0.277938     1.618136        |
 |             2         0.277938    0.277938    0.277938     1.618136        |
 |             3        -0.277938    0.277938   -0.277938     1.618136        |
 |             4        -0.277938    0.277938    0.277938     1.618136        |
 |             5         0.277938   -0.277938    0.277938     1.618136        |
 |             6        -0.277938   -0.277938   -0.277938     1.618136        |
 |             7         0.277938    0.277938   -0.277938     1.618136        |
 |             8         0.277938   -0.277938   -0.277938     1.618136        |
 +----------------------------------------------------------------------------+
 |                           b_k Directions (Ang^-1)                          |
 |                           -----------------------                          |
 |            No.           x           y           z                         |
 |            ---        --------------------------------                     |
 |             1        -0.277938   -0.277938    0.277938                     |
 |             2         0.277938    0.277938    0.277938                     |
 |             3        -0.277938    0.277938   -0.277938                     |
 |             4        -0.277938    0.277938    0.277938                     |
 +----------------------------------------------------------------------------+
  
 Time to get kmesh              0.056 (sec)
 *============================================================================*
 |                              MEMORY ESTIMATE                               |
 |         Maximum RAM allocated during each phase of the calculation         |
 *============================================================================*
 |                            Wannierise:            0.42 Mb                  |
 |                          plot_wannier:            0.42 Mb                  |
 *----------------------------------------------------------------------------*
  
 Starting a new Wannier90 calculation ...


 Reading overlaps from gaas.mmn    :  Created on 21Jun2018 at 13:28:44

 Reading projections from gaas.amn :  Created on 21Jun2018 at 13:28:41

 Time to read overlaps          0.016 (sec)

 Writing checkpoint file gaas.chk... done

 
 *------------------------------- WANNIERISE ---------------------------------*
 +--------------------------------------------------------------------+<-- CONV
 | Iter  Delta Spread     RMS Gradient      Spread (Ang^2)      Time  |<-- CONV
 +--------------------------------------------------------------------+<-- CONV
 
 ------------------------------------------------------------------------------
 Initial State
  WF centre and spread    1  ( -0.857524,  0.857524,  0.857524 )     1.80463310
  WF centre and spread    2  (  0.857524, -0.857524,  0.857524 )     1.80463311
  WF centre and spread    3  (  0.857524,  0.857524, -0.857524 )     1.80463311
  WF centre and spread    4  ( -0.857524, -0.857524, -0.857524 )     1.80463311
  Sum of centres and spreads ( -0.000000, -0.000000,  0.000000 )     7.21853243
 
      0    -0.479E+02     0.0000000000      -47.8950666560       0.00  <-- CONV
       O_IOD=    -47.6760589 O_D=     -0.2190077 O_TOT=    -47.8950667 <-- SPRD
 ------------------------------------------------------------------------------
 Cycle:      1
  WF centre and spread    1  ( -0.863187,  0.863187,  0.863187 )     1.81681947
  WF centre and spread    2  (  0.857148, -0.857148,  0.854545 )     1.80092869
  WF centre and spread    3  (  0.857148,  0.854545, -0.857148 )     1.80092869
  WF centre and spread    4  ( -0.854545, -0.857148, -0.857148 )     1.80092868
  Sum of centres and spreads ( -0.003437,  0.003437,  0.003437 )     7.21960553
 
      1    -0.176E+00     0.4904428723      -48.0706419042       0.00  <-- CONV
    0.100E+02
       O_IOD=    -48.0010033 O_D=     -0.0696386 O_TOT=    -48.0706419 <-- SPRD
Delta: O_IOD=  0.1551751E+00 O_D=  0.1493691E+00 O_TOT= -0.1755752E+00 <-- DLTA
 ------------------------------------------------------------------------------
 Cycle:      2
  WF centre and spread    1  ( -0.863824,  0.863824,  0.863824 )     1.82016516
  WF centre and spread    2  (  0.857146, -0.857146,  0.854207 )     1.80087069
  WF centre and spread    3  (  0.857146,  0.854207, -0.857146 )     1.80087069
  WF centre and spread    4  ( -0.854207, -0.857146, -0.857146 )     1.80087069
  Sum of centres and spreads ( -0.003738,  0.003738,  0.003738 )     7.22277722
 
      2    -0.177E-01     0.4779965890      -48.0883033239       0.01  <-- CONV
    0.100E+02
       O_IOD=    -48.0256560 O_D=     -0.0626473 O_TOT=    -48.0883033 <-- SPRD
Delta: O_IOD=  0.2937196E-01 O_D=  0.6991275E-02 O_TOT= -0.1766142E-01 <-- DLTA
 ------------------------------------------------------------------------------
 Cycle:      3
  WF centre and spread    1  ( -0.864841,  0.864841,  0.864841 )     1.82596174
  WF centre and spread    2  (  0.857164, -0.857164,  0.853664 )     1.80085898
  WF centre and spread    3  (  0.857164,  0.853664, -0.857164 )     1.80085898
  WF centre and spread    4  ( -0.853664, -0.857164, -0.857164 )     1.80085898
  Sum of centres and spreads ( -0.004177,  0.004177,  0.004177 )     7.22853868
 
      3    -0.277E-01     0.4817338930      -48.1159721993       0.01  <-- CONV
    0.100E+02
       O_IOD=    -48.0619131 O_D=     -0.0540591 O_TOT=    -48.1159722 <-- SPRD
Delta: O_IOD=  0.4993688E-01 O_D=  0.8588188E-02 O_TOT= -0.2766888E-01 <-- DLTA
 ------------------------------------------------------------------------------
 Cycle:      4
  WF centre and spread    1  ( -0.866301,  0.866301,  0.866301 )     1.83492590
  WF centre and spread    2  (  0.857218, -0.857218,  0.852896 )     1.80104512
  WF centre and spread    3  (  0.857218,  0.852896, -0.857218 )     1.80104512
  WF centre and spread    4  ( -0.852896, -0.857218, -0.857218 )     1.80104512
  Sum of centres and spreads ( -0.004761,  0.004761,  0.004761 )     7.23806126
 
      4    -0.390E-01     0.4890349258      -48.1549363053       0.01  <-- CONV
    0.100E+02
       O_IOD=    -48.1103212 O_D=     -0.0446151 O_TOT=    -48.1549363 <-- SPRD
Delta: O_IOD=  0.7531558E-01 O_D=  0.9444031E-02 O_TOT= -0.3896411E-01 <-- DLTA
 ------------------------------------------------------------------------------
 Cycle:      5
  WF centre and spread    1  ( -0.868307,  0.868307,  0.868307 )     1.84815326
  WF centre and spread    2  (  0.857338, -0.857338,  0.851869 )     1.80166136
  WF centre and spread    3  (  0.857338,  0.851869, -0.857338 )     1.80166136
  WF centre and spread    4  ( -0.851869, -0.857338, -0.857338 )     1.80166136
  Sum of centres and spreads ( -0.005501,  0.005501,  0.005501 )     7.25313735
 
      5    -0.525E-01     0.5007456618      -48.2074094833       0.01  <-- CONV
    0.100E+02
       O_IOD=    -48.1721956 O_D=     -0.0352138 O_TOT=    -48.2074095 <-- SPRD
Delta: O_IOD=  0.1082660E+00 O_D=  0.9401272E-02 O_TOT= -0.5247318E-01 <-- DLTA
 ------------------------------------------------------------------------------
 Cycle:      6
  WF centre and spread    1  ( -0.871030,  0.871030,  0.871030 )     1.86729841
  WF centre and spread    2  (  0.857569, -0.857569,  0.850529 )     1.80306555
  WF centre and spread    3  (  0.857569,  0.850529, -0.857569 )     1.80306555
  WF centre and spread    4  ( -0.850529, -0.857569, -0.857569 )     1.80306555
  Sum of centres and spreads ( -0.006421,  0.006421,  0.006421 )     7.27649507
 
      6    -0.696E-01     0.5179855720      -48.2769954454       0.02  <-- CONV
    0.100E+02
       O_IOD=    -48.2500167 O_D=     -0.0269787 O_TOT=    -48.2769954 <-- SPRD
Delta: O_IOD=  0.1529604E+00 O_D=  0.8235113E-02 O_TOT= -0.6958596E-01 <-- DLTA
 ------------------------------------------------------------------------------
 Cycle:      7
  WF centre and spread    1  ( -0.871515,  0.871515,  0.871515 )     1.87075121
  WF centre and spread    2  (  0.857630, -0.857630,  0.850280 )     1.80327170
  WF centre and spread    3  (  0.857630,  0.850280, -0.857630 )     1.80327170
  WF centre and spread    4  ( -0.850280, -0.857630, -0.857630 )     1.80327170
  Sum of centres and spreads ( -0.006535,  0.006535,  0.006535 )     7.28056631
 
      7    -0.123E-01     0.5421831076      -48.2893196232       0.02  <-- CONV
    0.100E+02
       O_IOD=    -48.2628093 O_D=     -0.0265103 O_TOT=    -48.2893196 <-- SPRD
Delta: O_IOD=  0.2836338E-01 O_D=  0.4684070E-03 O_TOT= -0.1232418E-01 <-- DLTA
 ------------------------------------------------------------------------------
 Cycle:      8
  WF centre and spread    1  ( -0.872517,  0.872517,  0.872517 )     1.87791825
  WF centre and spread    2  (  0.857762, -0.857762,  0.849773 )     1.80374639
  WF centre and spread    3  (  0.857762,  0.849773, -0.857762 )     1.80374639
  WF centre and spread    4  ( -0.849773, -0.857762, -0.857762 )     1.80374638
  Sum of centres and spreads ( -0.006766,  0.006766,  0.006766 )     7.28915741
 
      8    -0.253E-01     0.5470650823      -48.3146576515       0.02  <-- CONV
    0.100E+02
       O_IOD=    -48.2890335 O_D=     -0.0256241 O_TOT=    -48.3146577 <-- SPRD
Delta: O_IOD=  0.5868540E-01 O_D=  0.8861946E-03 O_TOT= -0.2533803E-01 <-- DLTA
 ------------------------------------------------------------------------------
 Cycle:      9
  WF centre and spread    1  ( -0.874109,  0.874109,  0.874109 )     1.88941602
  WF centre and spread    2  (  0.857986, -0.857986,  0.848986 )     1.80462783
  WF centre and spread    3  (  0.857986,  0.848986, -0.857986 )     1.80462783
  WF centre and spread    4  ( -0.848986, -0.857986, -0.857986 )     1.80462782
  Sum of centres and spreads ( -0.007123,  0.007123,  0.007123 )     7.30329950
 
      9    -0.400E-01     0.5569909284      -48.3546997057       0.02  <-- CONV
    0.100E+02
       O_IOD=    -48.3302815 O_D=     -0.0244182 O_TOT=    -48.3546997 <-- SPRD
Delta: O_IOD=  0.9370770E-01 O_D=  0.1205938E-02 O_TOT= -0.4004205E-01 <-- DLTA
 ------------------------------------------------------------------------------
 Cycle:     10
  WF centre and spread    1  ( -0.876421,  0.876421,  0.876421 )     1.90630386
  WF centre and spread    2  (  0.858341, -0.858341,  0.847881 )     1.80615571
  WF centre and spread    3  (  0.858341,  0.847881, -0.858341 )     1.80615571
  WF centre and spread    4  ( -0.847881, -0.858341, -0.858341 )     1.80615571
  Sum of centres and spreads ( -0.007620,  0.007620,  0.007620 )     7.32477099
 
     10    -0.577E-01     0.5723712463      -48.4123857343       0.03  <-- CONV
    0.100E+02
       O_IOD=    -48.3893320 O_D=     -0.0230537 O_TOT=    -48.4123857 <-- SPRD
Delta: O_IOD=  0.1369281E+00 O_D=  0.1364482E-02 O_TOT= -0.5768603E-01 <-- DLTA
 ------------------------------------------------------------------------------
 Cycle:     11
  WF centre and spread    1  ( -0.879659,  0.879659,  0.879659 )     1.93024934
  WF centre and spread    2  (  0.858888, -0.858888,  0.846399 )     1.80872004
  WF centre and spread    3  (  0.858888,  0.846399, -0.858888 )     1.80872004
  WF centre and spread    4  ( -0.846399, -0.858888, -0.858888 )     1.80872004
  Sum of centres and spreads ( -0.008283,  0.008283,  0.008283 )     7.35640946
 
     11    -0.800E-01     0.5938760669      -48.4923747873       0.03  <-- CONV
    0.100E+02
       O_IOD=    -48.4705847 O_D=     -0.0217901 O_TOT=    -48.4923748 <-- SPRD
Delta: O_IOD=  0.1933024E+00 O_D=  0.1263659E-02 O_TOT= -0.7998905E-01 <-- DLTA
 ------------------------------------------------------------------------------
 Cycle:     12
  WF centre and spread    1  ( -0.884148,  0.884148,  0.884148 )     1.96380858
  WF centre and spread    2  (  0.859725, -0.859725,  0.844456 )     1.81294768
  WF centre and spread    3  (  0.859725,  0.844456, -0.859725 )     1.81294768
  WF centre and spread    4  ( -0.844456, -0.859725, -0.859725 )     1.81294767
  Sum of centres and spreads ( -0.009155,  0.009155,  0.009155 )     7.40265160
 
     12    -0.109E+00     0.6224534389      -48.6018401699       0.03  <-- CONV
    0.100E+02
       O_IOD=    -48.5807812 O_D=     -0.0210590 O_TOT=    -48.6018402 <-- SPRD
Delta: O_IOD=  0.2703689E+00 O_D=  0.7310675E-03 O_TOT= -0.1094654E+00 <-- DLTA
 ------------------------------------------------------------------------------
 Cycle:     13
  WF centre and spread    1  ( -0.884904,  0.884904,  0.884904 )     1.96939654
  WF centre and spread    2  (  0.859881, -0.859881,  0.844129 )     1.81362352
  WF centre and spread    3  (  0.859881,  0.844129, -0.859881 )     1.81362352
  WF centre and spread    4  ( -0.844129, -0.859881, -0.859881 )     1.81362352
  Sum of centres and spreads ( -0.009272,  0.009272,  0.009272 )     7.41026709
 
     13    -0.184E-01     0.6593402872      -48.6202080255       0.03  <-- CONV
    0.100E+02
       O_IOD=    -48.5991025 O_D=     -0.0211055 O_TOT=    -48.6202080 <-- SPRD
Delta: O_IOD=  0.4573758E-01 O_D= -0.4651844E-04 O_TOT= -0.1836786E-01 <-- DLTA
 ------------------------------------------------------------------------------
 Cycle:     14
  WF centre and spread    1  ( -0.886463,  0.886463,  0.886463 )     1.98092570
  WF centre and spread    2  (  0.860208, -0.860208,  0.843464 )     1.81506907
  WF centre and spread    3  (  0.860208,  0.843464, -0.860208 )     1.81506907
  WF centre and spread    4  ( -0.843464, -0.860208, -0.860208 )     1.81506907
  Sum of centres and spreads ( -0.009510,  0.009510,  0.009510 )     7.42613292
 
     14    -0.378E-01     0.6654642863      -48.6579961314       0.04  <-- CONV
    0.100E+02
       O_IOD=    -48.6367575 O_D=     -0.0212386 O_TOT=    -48.6579961 <-- SPRD
Delta: O_IOD=  0.9451102E-01 O_D= -0.1330916E-03 O_TOT= -0.3778811E-01 <-- DLTA
 ------------------------------------------------------------------------------
 Cycle:     15
  WF centre and spread    1  ( -0.888941,  0.888941,  0.888941 )     1.99924342
  WF centre and spread    2  (  0.860745, -0.860745,  0.842433 )     1.81749835
  WF centre and spread    3  (  0.860745,  0.842433, -0.860745 )     1.81749835
  WF centre and spread    4  ( -0.842433, -0.860745, -0.860745 )     1.81749835
  Sum of centres and spreads ( -0.009884,  0.009884,  0.009884 )     7.45173847
 
     15    -0.598E-01     0.6778307129      -48.7177684309       0.04  <-- CONV
    0.100E+02
       O_IOD=    -48.6962192 O_D=     -0.0215492 O_TOT=    -48.7177684 <-- SPRD
Delta: O_IOD=  0.1506172E+00 O_D= -0.3105987E-03 O_TOT= -0.5977230E-01 <-- DLTA
 ------------------------------------------------------------------------------
 Cycle:     16
  WF centre and spread    1  ( -0.892539,  0.892539,  0.892539 )     2.02579429
  WF centre and spread    2  (  0.861556, -0.861556,  0.840989 )     1.82128143
  WF centre and spread    3  (  0.861556,  0.840989, -0.861556 )     1.82128143
  WF centre and spread    4  ( -0.840989, -0.861556, -0.861556 )     1.82128143
  Sum of centres and spreads ( -0.010417,  0.010417,  0.010417 )     7.48963858
 
     16    -0.862E-01     0.6967772275      -48.8039262910       0.04  <-- CONV
    0.100E+02
       O_IOD=    -48.7817209 O_D=     -0.0222054 O_TOT=    -48.8039263 <-- SPRD
Delta: O_IOD=  0.2194729E+00 O_D= -0.6561854E-03 O_TOT= -0.8615786E-01 <-- DLTA
 ------------------------------------------------------------------------------
 Cycle:     17
  WF centre and spread    1  ( -0.897572,  0.897572,  0.897572 )     2.06280484
  WF centre and spread    2  (  0.862742, -0.862742,  0.839063 )     1.82701058
  WF centre and spread    3  (  0.862742,  0.839063, -0.862742 )     1.82701057
  WF centre and spread    4  ( -0.839063, -0.862742, -0.862742 )     1.82701057
  Sum of centres and spreads ( -0.011150,  0.011150,  0.011150 )     7.54383657
 
     17    -0.119E+00     0.7228381364      -48.9232947106       0.04  <-- CONV
    0.100E+02
       O_IOD=    -48.8997881 O_D=     -0.0235066 O_TOT=    -48.9232947 <-- SPRD
Delta: O_IOD=  0.3085993E+00 O_D= -0.1301262E-02 O_TOT= -0.1193684E+00 <-- DLTA
 ------------------------------------------------------------------------------
 Cycle:     18
  WF centre and spread    1  ( -0.904523,  0.904523,  0.904523 )     2.11356800
  WF centre and spread    2  (  0.864466, -0.864466,  0.836558 )     1.83560994
  WF centre and spread    3  (  0.864466,  0.836558, -0.864466 )     1.83560994
  WF centre and spread    4  ( -0.836558, -0.864466, -0.864466 )     1.83560994
  Sum of centres and spreads ( -0.012150,  0.012150,  0.012150 )     7.62039782
 
     18    -0.163E+00     0.7566905867      -49.0860306023       0.04  <-- CONV
    0.100E+02
       O_IOD=    -49.0600389 O_D=     -0.0259917 O_TOT=    -49.0860306 <-- SPRD
Delta: O_IOD=  0.4290823E+00 O_D= -0.2485030E-02 O_TOT= -0.1627359E+00 <-- DLTA
 ------------------------------------------------------------------------------
 Cycle:     19
  WF centre and spread    1  ( -0.905687,  0.905687,  0.905687 )     2.12188576
  WF centre and spread    2  (  0.864768, -0.864768,  0.836146 )     1.83699449
  WF centre and spread    3  (  0.864768,  0.836146, -0.864768 )     1.83699449
  WF centre and spread    4  ( -0.836146, -0.864768, -0.864768 )     1.83699449
  Sum of centres and spreads ( -0.012296,  0.012296,  0.012296 )     7.63286922
 
     19    -0.271E-01     0.7990150533      -49.1131528581       0.05  <-- CONV
    0.100E+02
       O_IOD=    -49.0867339 O_D=     -0.0264189 O_TOT=    -49.1131529 <-- SPRD
Delta: O_IOD=  0.7191368E-01 O_D= -0.4272412E-03 O_TOT= -0.2712226E-01 <-- DLTA
 ------------------------------------------------------------------------------
 Cycle:     20
  WF centre and spread    1  ( -0.908082,  0.908082,  0.908082 )     2.13895473
  WF centre and spread    2  (  0.865397, -0.865397,  0.835309 )     1.83989724
  WF centre and spread    3  (  0.865397,  0.835309, -0.865397 )     1.83989724
  WF centre and spread    4  ( -0.835309, -0.865397, -0.865397 )     1.83989724
  Sum of centres and spreads ( -0.012597,  0.012597,  0.012597 )     7.65864644
 
     20    -0.557E-01     0.8057916094      -49.1688233543       0.05  <-- CONV
    0.100E+02
       O_IOD=    -49.1414842 O_D=     -0.0273391 O_TOT=    -49.1688234 <-- SPRD
Delta: O_IOD=  0.1483525E+00 O_D= -0.9202017E-03 O_TOT= -0.5567050E-01 <-- DLTA
 ------------------------------------------------------------------------------
 Cycle:     21
  WF centre and spread    1  ( -0.911877,  0.911877,  0.911877 )     2.16581220
  WF centre and spread    2  (  0.866411, -0.866411,  0.834021 )     1.84462456
  WF centre and spread    3  (  0.866411,  0.834021, -0.866411 )     1.84462456
  WF centre and spread    4  ( -0.834021, -0.866411, -0.866411 )     1.84462456
  Sum of centres and spreads ( -0.013076,  0.013076,  0.013076 )     7.69968589
 
     21    -0.876E-01     0.8193535079      -49.2564639733       0.05  <-- CONV
    0.100E+02
       O_IOD=    -49.2275574 O_D=     -0.0289065 O_TOT=    -49.2564640 <-- SPRD
Delta: O_IOD=  0.2355955E+00 O_D= -0.1567415E-02 O_TOT= -0.8764062E-01 <-- DLTA
 ------------------------------------------------------------------------------
 Cycle:     22
  WF centre and spread    1  ( -0.917352,  0.917352,  0.917352 )     2.20417791
  WF centre and spread    2  (  0.867905, -0.867905,  0.832232 )     1.85169491
  WF centre and spread    3  (  0.867905,  0.832232, -0.867905 )     1.85169491
  WF centre and spread    4  ( -0.832232, -0.867905, -0.867905 )     1.85169491
  Sum of centres and spreads ( -0.013773,  0.013773,  0.013773 )     7.75926265
 
     22    -0.125E+00     0.8397892487      -49.3817789623       0.05  <-- CONV
    0.100E+02
       O_IOD=    -49.3503754 O_D=     -0.0314036 O_TOT=    -49.3817790 <-- SPRD
Delta: O_IOD=  0.3413003E+00 O_D= -0.2497053E-02 O_TOT= -0.1253150E+00 <-- DLTA
 ------------------------------------------------------------------------------
 Cycle:     23
  WF centre and spread    1  ( -0.924937,  0.924937,  0.924937 )     2.25657264
  WF centre and spread    2  (  0.870029, -0.870029,  0.829876 )     1.86190511
  WF centre and spread    3  (  0.870029,  0.829876, -0.870029 )     1.86190510
  WF centre and spread    4  ( -0.829876, -0.870029, -0.870029 )     1.86190511
  Sum of centres and spreads ( -0.014754,  0.014754,  0.014754 )     7.84228796
 
     23    -0.171E+00     0.8671629741      -49.5531889447       0.06  <-- CONV
    0.100E+02
       O_IOD=    -49.5178708 O_D=     -0.0353181 O_TOT=    -49.5531889 <-- SPRD
Delta: O_IOD=  0.4755318E+00 O_D= -0.3914547E-02 O_TOT= -0.1714100E+00 <-- DLTA
 ------------------------------------------------------------------------------
 Cycle:     24
  WF centre and spread    1  ( -0.935257,  0.935257,  0.935257 )     2.32643710
  WF centre and spread    2  (  0.873002, -0.873002,  0.826870 )     1.87642288
  WF centre and spread    3  (  0.873002,  0.826870, -0.873002 )     1.87642288
  WF centre and spread    4  ( -0.826870, -0.873002, -0.873002 )     1.87642288
  Sum of centres and spreads ( -0.016122,  0.016122,  0.016122 )     7.95570574
 
     24    -0.229E+00     0.9013041048      -49.7822705069       0.06  <-- CONV
    0.100E+02
       O_IOD=    -49.7407874 O_D=     -0.0414831 O_TOT=    -49.7822705 <-- SPRD
Delta: O_IOD=  0.6519304E+00 O_D= -0.6164966E-02 O_TOT= -0.2290816E+00 <-- DLTA
 ------------------------------------------------------------------------------
 Cycle:     25
  WF centre and spread    1  ( -0.936978,  0.936978,  0.936978 )     2.33775459
  WF centre and spread    2  (  0.873511, -0.873511,  0.826382 )     1.87876675
  WF centre and spread    3  (  0.873511,  0.826382, -0.873511 )     1.87876675
  WF centre and spread    4  ( -0.826382, -0.873511, -0.873511 )     1.87876675
  Sum of centres and spreads ( -0.016338,  0.016338,  0.016338 )     7.97405485
 
     25    -0.379E-01     0.9413964009      -49.8201961809       0.06  <-- CONV
    0.100E+02
       O_IOD=    -49.7777505 O_D=     -0.0424457 O_TOT=    -49.8201962 <-- SPRD
Delta: O_IOD=  0.1089637E+00 O_D= -0.9626307E-03 O_TOT= -0.3792567E-01 <-- DLTA
 ------------------------------------------------------------------------------
 Cycle:     26
  WF centre and spread    1  ( -0.940510,  0.940510,  0.940510 )     2.36082105
  WF centre and spread    2  (  0.874563, -0.874563,  0.825400 )     1.88362151
  WF centre and spread    3  (  0.874563,  0.825400, -0.874563 )     1.88362151
  WF centre and spread    4  ( -0.825400, -0.874563, -0.874563 )     1.88362151
  Sum of centres and spreads ( -0.016785,  0.016785,  0.016785 )     8.01168559
 
     26    -0.774E-01     0.9475613061      -49.8976188133       0.06  <-- CONV
    0.100E+02
       O_IOD=    -49.8531414 O_D=     -0.0444774 O_TOT=    -49.8976188 <-- SPRD
Delta: O_IOD=  0.2240473E+00 O_D= -0.2031692E-02 O_TOT= -0.7742263E-01 <-- DLTA
 ------------------------------------------------------------------------------
 Cycle:     27
  WF centre and spread    1  ( -0.946060,  0.946060,  0.946060 )     2.39664348
  WF centre and spread    2  (  0.876230, -0.876230,  0.823901 )     1.89136234
  WF centre and spread    3  (  0.876230,  0.823901, -0.876230 )     1.89136234
  WF centre and spread    4  ( -0.823901, -0.876230, -0.876230 )     1.89136235
  Sum of centres and spreads ( -0.017500,  0.017500,  0.017500 )     8.07073050
 
     27    -0.121E+00     0.9596476935      -50.0181754676       0.06  <-- CONV
    0.100E+02
       O_IOD=    -49.9703531 O_D=     -0.0478224 O_TOT=    -50.0181755 <-- SPRD
Delta: O_IOD=  0.3532737E+00 O_D= -0.3344935E-02 O_TOT= -0.1205567E+00 <-- DLTA
 ------------------------------------------------------------------------------
 Cycle:     28
  WF centre and spread    1  ( -0.953963,  0.953963,  0.953963 )     2.44678540
  WF centre and spread    2  (  0.878636, -0.878636,  0.821852 )     1.90259457
  WF centre and spread    3  (  0.878636,  0.821852, -0.878636 )     1.90259457
  WF centre and spread    4  ( -0.821852, -0.878636, -0.878636 )     1.90259458
  Sum of centres and spreads ( -0.018543,  0.018543,  0.018543 )     8.15456912
 
     28    -0.169E+00     0.9771611138      -50.1875226559       0.07  <-- CONV
    0.100E+02
       O_IOD=    -50.1346168 O_D=     -0.0529058 O_TOT=    -50.1875227 <-- SPRD
Delta: O_IOD=  0.5056917E+00 O_D= -0.5083491E-02 O_TOT= -0.1693472E+00 <-- DLTA
 ------------------------------------------------------------------------------
 Cycle:     29
  WF centre and spread    1  ( -0.964694,  0.964694,  0.964694 )     2.51328621
  WF centre and spread    2  (  0.881951, -0.881951,  0.819217 )     1.91817689
  WF centre and spread    3  (  0.881951,  0.819217, -0.881951 )     1.91817689
  WF centre and spread    4  ( -0.819217, -0.881951, -0.881951 )     1.91817690
  Sum of centres and spreads ( -0.020009,  0.020008,  0.020009 )     8.26781688
 
     29    -0.226E+00     0.9991461654      -50.4130560874       0.07  <-- CONV
    0.100E+02
       O_IOD=    -50.3526495 O_D=     -0.0604066 O_TOT=    -50.4130561 <-- SPRD
Delta: O_IOD=  0.6916650E+00 O_D= -0.7500737E-02 O_TOT= -0.2255334E+00 <-- DLTA
 ------------------------------------------------------------------------------
 Cycle:     30
  WF centre and spread    1  ( -0.978864,  0.978864,  0.978864 )     2.59841646
  WF centre and spread    2  (  0.886401, -0.886401,  0.815965 )     1.93921791
  WF centre and spread    3  (  0.886401,  0.815965, -0.886401 )     1.93921791
  WF centre and spread    4  ( -0.815965, -0.886401, -0.886401 )     1.93921791
  Sum of centres and spreads ( -0.022027,  0.022027,  0.022027 )     8.41607019
 
     30    -0.290E+00     1.0238162400      -50.7029767362       0.07  <-- CONV
    0.100E+02
       O_IOD=    -50.6316221 O_D=     -0.0713546 O_TOT=    -50.7029767 <-- SPRD
Delta: O_IOD=  0.9222999E+00 O_D= -0.1094805E-01 O_TOT= -0.2899206E+00 <-- DLTA
 ------------------------------------------------------------------------------
 Cycle:     31
  WF centre and spread    1  ( -0.981220,  0.981220,  0.981220 )     2.61204151
  WF centre and spread    2  (  0.887154, -0.887154,  0.815445 )     1.94260864
  WF centre and spread    3  (  0.887154,  0.815445, -0.887154 )     1.94260863
  WF centre and spread    4  ( -0.815445, -0.887154, -0.887154 )     1.94260864
  Sum of centres and spreads ( -0.022358,  0.022358,  0.022358 )     8.43986743
 
     31    -0.476E-01     1.0479855961      -50.7505375550       0.07  <-- CONV
    0.100E+02
       O_IOD=    -50.6775782 O_D=     -0.0729594 O_TOT=    -50.7505376 <-- SPRD
Delta: O_IOD=  0.1537608E+00 O_D= -0.1604765E-02 O_TOT= -0.4756082E-01 <-- DLTA
 ------------------------------------------------------------------------------
 Cycle:     32
  WF centre and spread    1  ( -0.986021,  0.986021,  0.986021 )     2.63954768
  WF centre and spread    2  (  0.888693, -0.888693,  0.814405 )     1.94955062
  WF centre and spread    3  (  0.888693,  0.814405, -0.888693 )     1.94955061
  WF centre and spread    4  ( -0.814405, -0.888693, -0.888693 )     1.94955062
  Sum of centres and spreads ( -0.023041,  0.023041,  0.023041 )     8.48819953
 
     32    -0.962E-01     1.0512649592      -50.8467022607       0.07  <-- CONV
    0.100E+02
       O_IOD=    -50.7704096 O_D=     -0.0762926 O_TOT=    -50.8467023 <-- SPRD
Delta: O_IOD=  0.3142079E+00 O_D= -0.3333231E-02 O_TOT= -0.9616471E-01 <-- DLTA
 ------------------------------------------------------------------------------
 Cycle:     33
  WF centre and spread    1  ( -0.993459,  0.993459,  0.993459 )     2.68147409
  WF centre and spread    2  (  0.891091, -0.891091,  0.812842 )     1.96037992
  WF centre and spread    3  (  0.891091,  0.812842, -0.891091 )     1.96037992
  WF centre and spread    4  ( -0.812842, -0.891091, -0.891091 )     1.96037993
  Sum of centres and spreads ( -0.024120,  0.024120,  0.024120 )     8.56261387
 
     33    -0.147E+00     1.0572087586      -50.9936221410       0.08  <-- CONV
    0.100E+02
       O_IOD=    -50.9120024 O_D=     -0.0816198 O_TOT=    -50.9936221 <-- SPRD
Delta: O_IOD=  0.4889481E+00 O_D= -0.5327157E-02 O_TOT= -0.1469199E+00 <-- DLTA
 ------------------------------------------------------------------------------
 Cycle:     34
  WF centre and spread    1  ( -1.003811,  1.003811,  1.003811 )     2.73848074
  WF centre and spread    2  (  0.894454, -0.894454,  0.810760 )     1.97558303
  WF centre and spread    3  (  0.894454,  0.810760, -0.894454 )     1.97558302
  WF centre and spread    4  ( -0.810760, -0.894454, -0.894454 )     1.97558303
  Sum of centres and spreads ( -0.025663,  0.025663,  0.025663 )     8.66522982
 
     34    -0.200E+00     1.0645131832      -51.1939117387       0.08  <-- CONV
    0.100E+02
       O_IOD=    -51.1045539 O_D=     -0.0893578 O_TOT=    -51.1939117 <-- SPRD
Delta: O_IOD=  0.6849828E+00 O_D= -0.7738058E-02 O_TOT= -0.2002896E+00 <-- DLTA
 ------------------------------------------------------------------------------
 Cycle:     35
  WF centre and spread    1  ( -1.017401,  1.017401,  1.017401 )     2.81103715
  WF centre and spread    2  (  0.898908, -0.898908,  0.808176 )     1.99573193
  WF centre and spread    3  (  0.898908,  0.808176, -0.898908 )     1.99573193
  WF centre and spread    4  ( -0.808176, -0.898908, -0.898908 )     1.99573194
  Sum of centres and spreads ( -0.027759,  0.027759,  0.027759 )     8.79823296
 
     35    -0.255E+00     1.0709927983      -51.4493886671       0.08  <-- CONV
    0.100E+02
       O_IOD=    -51.3493176 O_D=     -0.1000710 O_TOT=    -51.4493887 <-- SPRD
Delta: O_IOD=  0.9073170E+00 O_D= -0.1071318E-01 O_TOT= -0.2554769E+00 <-- DLTA
 ------------------------------------------------------------------------------
 Cycle:     36
  WF centre and spread    1  ( -1.034520,  1.034520,  1.034520 )     2.89890916
  WF centre and spread    2  (  0.904576, -0.904576,  0.805138 )     2.02134536
  WF centre and spread    3  (  0.904576,  0.805138, -0.904576 )     2.02134535
  WF centre and spread    4  ( -0.805138, -0.904576, -0.904576 )     2.02134536
  Sum of centres and spreads ( -0.030505,  0.030505,  0.030505 )     8.96294524
 
     36    -0.310E+00     1.0733464917      -51.7589668430       0.08  <-- CONV
    0.100E+02
       O_IOD=    -51.6445505 O_D=     -0.1144163 O_TOT=    -51.7589668 <-- SPRD
Delta: O_IOD=  0.1156037E+01 O_D= -0.1434531E-01 O_TOT= -0.3095782E+00 <-- DLTA
 ------------------------------------------------------------------------------
 Cycle:     37
  WF centre and spread    1  ( -1.037353,  1.037353,  1.037353 )     2.91271235
  WF centre and spread    2  (  0.905527, -0.905527,  0.804656 )     2.02541999
  WF centre and spread    3  (  0.905527,  0.804656, -0.905527 )     2.02541999
  WF centre and spread    4  ( -0.804656, -0.905527, -0.905527 )     2.02542000
  Sum of centres and spreads ( -0.030954,  0.030954,  0.030954 )     8.98897232
 
     37    -0.503E-01     1.0670406420      -51.8092427201       0.08  <-- CONV
    0.100E+02
       O_IOD=    -51.6929567 O_D=     -0.1162860 O_TOT=    -51.8092427 <-- SPRD
Delta: O_IOD=  0.1917674E+00 O_D= -0.1869655E-02 O_TOT= -0.5027588E-01 <-- DLTA
 ------------------------------------------------------------------------------
 Cycle:     38
  WF centre and spread    1  ( -1.043068,  1.043068,  1.043068 )     2.94023167
  WF centre and spread    2  (  0.907450, -0.907450,  0.803701 )     2.03365237
  WF centre and spread    3  (  0.907450,  0.803701, -0.907450 )     2.03365237
  WF centre and spread    4  ( -0.803701, -0.907450, -0.907450 )     2.03365238
  Sum of centres and spreads ( -0.031870,  0.031870,  0.031870 )     9.04118879
 
     38    -0.100E+00     1.0651901646      -51.9095313843       0.08  <-- CONV
    0.100E+02
       O_IOD=    -51.7894427 O_D=     -0.1200886 O_TOT=    -51.9095314 <-- SPRD
Delta: O_IOD=  0.3880429E+00 O_D= -0.3802657E-02 O_TOT= -0.1002887E+00 <-- DLTA
 ------------------------------------------------------------------------------
 Cycle:     39
  WF centre and spread    1  ( -1.051740,  1.051740,  1.051740 )     2.98116384
  WF centre and spread    2  (  0.910378, -0.910378,  0.802297 )     2.04616965
  WF centre and spread    3  (  0.910378,  0.802297, -0.910378 )     2.04616965
  WF centre and spread    4  ( -0.802297, -0.910378, -0.910378 )     2.04616966
  Sum of centres and spreads ( -0.033280,  0.033280,  0.033280 )     9.11967279
 
     39    -0.149E+00     1.0606673835      -52.0587770191       0.09  <-- CONV
    0.100E+02
       O_IOD=    -51.9328452 O_D=     -0.1259318 O_TOT=    -52.0587770 <-- SPRD
Delta: O_IOD=  0.5917651E+00 O_D= -0.5843198E-02 O_TOT= -0.1492456E+00 <-- DLTA
 ------------------------------------------------------------------------------
 Cycle:     40
  WF centre and spread    1  ( -1.063427,  1.063427,  1.063427 )     3.03479052
  WF centre and spread    2  (  0.914345, -0.914345,  0.800484 )     2.06307565
  WF centre and spread    3  (  0.914345,  0.800484, -0.914345 )     2.06307565
  WF centre and spread    4  ( -0.800484, -0.914345, -0.914345 )     2.06307566
  Sum of centres and spreads ( -0.035221,  0.035221,  0.035221 )     9.22401749
 
     40    -0.196E+00     1.0518422194      -52.2542918344       0.09  <-- CONV
    0.100E+02
       O_IOD=    -52.1203616 O_D=     -0.1339302 O_TOT=    -52.2542918 <-- SPRD
Delta: O_IOD=  0.8031771E+00 O_D= -0.7998406E-02 O_TOT= -0.1955148E+00 <-- DLTA
 ------------------------------------------------------------------------------
 Cycle:     41
  WF centre and spread    1  ( -1.078098,  1.078098,  1.078098 )     3.09969013
  WF centre and spread    2  (  0.919356, -0.919356,  0.798329 )     2.08433670
  WF centre and spread    3  (  0.919356,  0.798329, -0.919356 )     2.08433669
  WF centre and spread    4  ( -0.798329, -0.919356, -0.919356 )     2.08433671
  Sum of centres and spreads ( -0.037715,  0.037715,  0.037715 )     9.35270023
 
     41    -0.236E+00     1.0363567997      -52.4905620023       0.09  <-- CONV
    0.100E+02
       O_IOD=    -52.3464274 O_D=     -0.1441346 O_TOT=    -52.4905620 <-- SPRD
Delta: O_IOD=  0.1017643E+01 O_D= -0.1020440E-01 O_TOT= -0.2362702E+00 <-- DLTA
 ------------------------------------------------------------------------------
 Cycle:     42
  WF centre and spread    1  ( -1.095541,  1.095541,  1.095541 )     3.17344224
  WF centre and spread    2  (  0.925357, -0.925357,  0.795928 )     2.10962884
  WF centre and spread    3  (  0.925357,  0.795928, -0.925357 )     2.10962884
  WF centre and spread    4  ( -0.795928, -0.925357, -0.925357 )     2.10962885
  Sum of centres and spreads ( -0.040754,  0.040754,  0.040754 )     9.50232877
 
     42    -0.268E+00     1.0113948059      -52.7580843432       0.09  <-- CONV
    0.100E+02
       O_IOD=    -52.6016629 O_D=     -0.1564214 O_TOT=    -52.7580843 <-- SPRD
Delta: O_IOD=  0.1223487E+01 O_D= -0.1228681E-01 O_TOT= -0.2675223E+00 <-- DLTA
 ------------------------------------------------------------------------------
 Cycle:     43
  WF centre and spread    1  ( -1.098402,  1.098402,  1.098402 )     3.18454604
  WF centre and spread    2  (  0.926357, -0.926357,  0.795544 )     2.11350285
  WF centre and spread    3  (  0.926357,  0.795544, -0.926357 )     2.11350285
  WF centre and spread    4  ( -0.795544, -0.926357, -0.926357 )     2.11350286
  Sum of centres and spreads ( -0.041232,  0.041232,  0.041232 )     9.52505460
 
     43    -0.431E-01     0.9742850786      -52.8012193168       0.09  <-- CONV
    0.100E+02
       O_IOD=    -52.6435956 O_D=     -0.1576237 O_TOT=    -52.8012193 <-- SPRD
Delta: O_IOD=  0.2006326E+00 O_D= -0.1202231E-02 O_TOT= -0.4313497E-01 <-- DLTA
 ------------------------------------------------------------------------------
 Cycle:     44
  WF centre and spread    1  ( -1.104107,  1.104107,  1.104107 )     3.20637313
  WF centre and spread    2  (  0.928355, -0.928355,  0.794793 )     2.12122068
  WF centre and spread    3  (  0.928355,  0.794793, -0.928355 )     2.12122068
  WF centre and spread    4  ( -0.794793, -0.928355, -0.928355 )     2.12122070
  Sum of centres and spreads ( -0.042190,  0.042190,  0.042190 )     9.57003519
 
     44    -0.848E-01     0.9676089478      -52.8860662962       0.10  <-- CONV
    0.100E+02
       O_IOD=    -52.7260685 O_D=     -0.1599978 O_TOT=    -52.8860663 <-- SPRD
Delta: O_IOD=  0.4011489E+00 O_D= -0.2374121E-02 O_TOT= -0.8484698E-01 <-- DLTA
 ------------------------------------------------------------------------------
 Cycle:     45
  WF centre and spread    1  ( -1.112565,  1.112565,  1.112565 )     3.23797580
  WF centre and spread    2  (  0.931326, -0.931326,  0.793709 )     2.13264534
  WF centre and spread    3  (  0.931326,  0.793709, -0.931326 )     2.13264533
  WF centre and spread    4  ( -0.793709, -0.931326, -0.931326 )     2.13264535
  Sum of centres and spreads ( -0.043622,  0.043622,  0.043622 )     9.63591182
 
     45    -0.123E+00     0.9537111892      -53.0090334574       0.10  <-- CONV
    0.100E+02
       O_IOD=    -52.8455782 O_D=     -0.1634553 O_TOT=    -53.0090335 <-- SPRD
Delta: O_IOD=  0.5975479E+00 O_D= -0.3457453E-02 O_TOT= -0.1229672E+00 <-- DLTA
 ------------------------------------------------------------------------------
 Cycle:     46
  WF centre and spread    1  ( -1.123583,  1.123583,  1.123583 )     3.27778384
  WF centre and spread    2  (  0.935214, -0.935214,  0.792350 )     2.14748376
  WF centre and spread    3  (  0.935214,  0.792350, -0.935214 )     2.14748375
  WF centre and spread    4  ( -0.792350, -0.935214, -0.935214 )     2.14748377
  Sum of centres and spreads ( -0.045504,  0.045504,  0.045504 )     9.72023511
 
     46    -0.155E+00     0.9317163784      -53.1641248348       0.10  <-- CONV
    0.100E+02
       O_IOD=    -52.9962974 O_D=     -0.1678275 O_TOT=    -53.1641248 <-- SPRD
Delta: O_IOD=  0.7832930E+00 O_D= -0.4372221E-02 O_TOT= -0.1550914E+00 <-- DLTA
 ------------------------------------------------------------------------------
 Cycle:     47
  WF centre and spread    1  ( -1.136823,  1.136823,  1.136823 )     3.32358813
  WF centre and spread    2  (  0.939913, -0.939913,  0.790790 )     2.16522994
  WF centre and spread    3  (  0.939913,  0.790790, -0.939913 )     2.16522993
  WF centre and spread    4  ( -0.790790, -0.939913, -0.939913 )     2.16522995
  Sum of centres and spreads ( -0.047786,  0.047786,  0.047786 )     9.81927794
 
     47    -0.179E+00     0.9007178453      -53.3429004713       0.10  <-- CONV
    0.100E+02
       O_IOD=    -53.1700586 O_D=     -0.1728419 O_TOT=    -53.3429005 <-- SPRD
Delta: O_IOD=  0.9486634E+00 O_D= -0.5014380E-02 O_TOT= -0.1787756E+00 <-- DLTA
 ------------------------------------------------------------------------------
 Cycle:     48
  WF centre and spread    1  ( -1.151785,  1.151785,  1.151785 )     3.37264041
  WF centre and spread    2  (  0.945261, -0.945261,  0.789119 )     2.18513200
  WF centre and spread    3  (  0.945261,  0.789119, -0.945261 )     2.18513200
  WF centre and spread    4  ( -0.789119, -0.945261, -0.945261 )     2.18513202
  Sum of centres and spreads ( -0.050382,  0.050382,  0.050382 )     9.92803643
 
     48    -0.192E+00     0.8602404060      -53.5349755561       0.10  <-- CONV
    0.100E+02
       O_IOD=    -53.3568655 O_D=     -0.1781101 O_TOT=    -53.5349756 <-- SPRD
Delta: O_IOD=  0.1081588E+01 O_D= -0.5268252E-02 O_TOT= -0.1920751E+00 <-- DLTA
 ------------------------------------------------------------------------------
 Cycle:     49
  WF centre and spread    1  ( -1.154183,  1.154183,  1.154183 )     3.37920315
  WF centre and spread    2  (  0.946139, -0.946139,  0.788846 )     2.18790081
  WF centre and spread    3  (  0.946139,  0.788846, -0.946139 )     2.18790080
  WF centre and spread    4  ( -0.788846, -0.946139, -0.946139 )     2.18790082
  Sum of centres and spreads ( -0.050752,  0.050752,  0.050752 )     9.94290558
 
     49    -0.308E-01     0.8107734800      -53.5658034126       0.10  <-- CONV
    0.100E+02
       O_IOD=    -53.3877552 O_D=     -0.1780482 O_TOT=    -53.5658034 <-- SPRD
Delta: O_IOD=  0.1723629E+00 O_D=  0.6192568E-04 O_TOT= -0.3082786E-01 <-- DLTA
 ------------------------------------------------------------------------------
 Cycle:     50
  WF centre and spread    1  ( -1.158918,  1.158918,  1.158918 )     3.39191697
  WF centre and spread    2  (  0.947876, -0.947876,  0.788315 )     2.19334953
  WF centre and spread    3  (  0.947876,  0.788315, -0.947876 )     2.19334953
  WF centre and spread    4  ( -0.788315, -0.947876, -0.947876 )     2.19334955
  Sum of centres and spreads ( -0.051481,  0.051481,  0.051481 )     9.97196558
 
     50    -0.601E-01     0.8026468437      -53.6259219247       0.11  <-- CONV
    0.100E+02
       O_IOD=    -53.4480376 O_D=     -0.1778843 O_TOT=    -53.6259219 <-- SPRD
Delta: O_IOD=  0.3411370E+00 O_D=  0.1638890E-03 O_TOT= -0.6011851E-01 <-- DLTA
 ------------------------------------------------------------------------------
 Cycle:     51
  WF centre and spread    1  ( -1.165818,  1.165818,  1.165818 )     3.40984610
  WF centre and spread    2  (  0.950417, -0.950417,  0.787558 )     2.20123829
  WF centre and spread    3  (  0.950417,  0.787558, -0.950417 )     2.20123829
  WF centre and spread    4  ( -0.787558, -0.950417, -0.950417 )     2.20123830
  Sum of centres and spreads ( -0.052542,  0.052542,  0.052542 )    10.01356098
 
     51    -0.858E-01     0.7863554303      -53.7117175821       0.11  <-- CONV
    0.100E+02
       O_IOD=    -53.5341754 O_D=     -0.1775422 O_TOT=    -53.7117176 <-- SPRD
Delta: O_IOD=  0.4988221E+00 O_D=  0.3421108E-03 O_TOT= -0.8579566E-01 <-- DLTA
 ------------------------------------------------------------------------------
 Cycle:     52
  WF centre and spread    1  ( -1.174596,  1.174596,  1.174596 )     3.43160115
  WF centre and spread    2  (  0.953665, -0.953665,  0.786619 )     2.21117320
  WF centre and spread    3  (  0.953665,  0.786619, -0.953665 )     2.21117319
  WF centre and spread    4  ( -0.786619, -0.953665, -0.953665 )     2.21117321
  Sum of centres and spreads ( -0.053886,  0.053886,  0.053886 )    10.06512075
 
     52    -0.106E+00     0.7620886844      -53.8177924140       0.11  <-- CONV
    0.100E+02
       O_IOD=    -53.6408750 O_D=     -0.1769174 O_TOT=    -53.8177924 <-- SPRD
Delta: O_IOD=  0.6374878E+00 O_D=  0.6248111E-03 O_TOT= -0.1060748E+00 <-- DLTA
 ------------------------------------------------------------------------------
 Cycle:     53
  WF centre and spread    1  ( -1.184862,  1.184862,  1.184862 )     3.45547452
  WF centre and spread    2  (  0.957488, -0.957488,  0.785557 )     2.22261912
  WF centre and spread    3  (  0.957488,  0.785557, -0.957488 )     2.22261911
  WF centre and spread    4  ( -0.785557, -0.957488, -0.957488 )     2.22261913
  Sum of centres and spreads ( -0.055442,  0.055442,  0.055442 )    10.12333188
 
     53    -0.120E+00     0.7304438511      -53.9375438115       0.11  <-- CONV
    0.100E+02
       O_IOD=    -53.7616534 O_D=     -0.1758904 O_TOT=    -53.9375438 <-- SPRD
Delta: O_IOD=  0.7495080E+00 O_D=  0.1026945E-02 O_TOT= -0.1197514E+00 <-- DLTA
 ------------------------------------------------------------------------------
 Cycle:     54
  WF centre and spread    1  ( -1.196151,  1.196151,  1.196151 )     3.47963623
  WF centre and spread    2  (  0.961727, -0.961727,  0.784428 )     2.23493869
  WF centre and spread    3  (  0.961727,  0.784428, -0.961727 )     2.23493869
  WF centre and spread    4  ( -0.784428, -0.961727, -0.961727 )     2.23493871
  Sum of centres and spreads ( -0.057125,  0.057125,  0.057125 )    10.18445232
 
     54    -0.126E+00     0.6926058620      -54.0640193338       0.11  <-- CONV
    0.100E+02
       O_IOD=    -53.8896755 O_D=     -0.1743438 O_TOT=    -54.0640193 <-- SPRD
Delta: O_IOD=  0.8289895E+00 O_D=  0.1546637E-02 O_TOT= -0.1264755E+00 <-- DLTA
 ------------------------------------------------------------------------------
 Cycle:     55
  WF centre and spread    1  ( -1.197863,  1.197863,  1.197863 )     3.48171494
  WF centre and spread    2  (  0.962397, -0.962397,  0.784241 )     2.23625945
  WF centre and spread    3  (  0.962397,  0.784241, -0.962397 )     2.23625945
  WF centre and spread    4  ( -0.784241, -0.962397, -0.962397 )     2.23625947
  Sum of centres and spreads ( -0.057309,  0.057309,  0.057309 )    10.19049331
 
     55    -0.201E-01     0.6504210206      -54.0841146205       0.12  <-- CONV
    0.100E+02
       O_IOD=    -53.9107684 O_D=     -0.1733462 O_TOT=    -54.0841146 <-- SPRD
Delta: O_IOD=  0.1240220E+00 O_D=  0.9975970E-03 O_TOT= -0.2009529E-01 <-- DLTA
 ------------------------------------------------------------------------------
 Cycle:     56
  WF centre and spread    1  ( -1.201231,  1.201231,  1.201231 )     3.48561784
  WF centre and spread    2  (  0.963719, -0.963719,  0.783875 )     2.23883072
  WF centre and spread    3  (  0.963719,  0.783875, -0.963719 )     2.23883072
  WF centre and spread    4  ( -0.783875, -0.963719, -0.963719 )     2.23883074
  Sum of centres and spreads ( -0.057669,  0.057669,  0.057669 )    10.20211002
 
     56    -0.392E-01     0.6441235914      -54.1233205867       0.12  <-- CONV
    0.100E+02
       O_IOD=    -53.9519568 O_D=     -0.1713638 O_TOT=    -54.1233206 <-- SPRD
Delta: O_IOD=  0.2442903E+00 O_D=  0.1982430E-02 O_TOT= -0.3920597E-01 <-- DLTA
 ------------------------------------------------------------------------------
 Cycle:     57
  WF centre and spread    1  ( -1.206111,  1.206111,  1.206111 )     3.49081955
  WF centre and spread    2  (  0.965641, -0.965641,  0.783352 )     2.24248801
  WF centre and spread    3  (  0.965641,  0.783352, -0.965641 )     2.24248801
  WF centre and spread    4  ( -0.783352, -0.965641, -0.965641 )     2.24248803
  Sum of centres and spreads ( -0.058180,  0.058180,  0.058180 )    10.21828361
 
     57    -0.561E-01     0.6317369251      -54.1793833307       0.12  <-- CONV
    0.100E+02
       O_IOD=    -54.0109395 O_D=     -0.1684438 O_TOT=    -54.1793833 <-- SPRD
Delta: O_IOD=  0.3547235E+00 O_D=  0.2919952E-02 O_TOT= -0.5606274E-01 <-- DLTA
 ------------------------------------------------------------------------------
 Cycle:     58
  WF centre and spread    1  ( -1.212284,  1.212284,  1.212284 )     3.49658627
  WF centre and spread    2  (  0.968089, -0.968089,  0.782699 )     2.24698288
  WF centre and spread    3  (  0.968089,  0.782699, -0.968089 )     2.24698288
  WF centre and spread    4  ( -0.782699, -0.968089, -0.968089 )     2.24698290
  Sum of centres and spreads ( -0.058806,  0.058806,  0.058806 )    10.23753492
 
     58    -0.697E-01     0.6138248101      -54.2490668362       0.12  <-- CONV
    0.100E+02
       O_IOD=    -54.0843972 O_D=     -0.1646696 O_TOT=    -54.2490668 <-- SPRD
Delta: O_IOD=  0.4498649E+00 O_D=  0.3774221E-02 O_TOT= -0.6968351E-01 <-- DLTA
 ------------------------------------------------------------------------------
 Cycle:     59
  WF centre and spread    1  ( -1.219475,  1.219475,  1.219475 )     3.50206682
  WF centre and spread    2  (  0.970962, -0.970962,  0.781951 )     2.25200329
  WF centre and spread    3  (  0.970962,  0.781951, -0.970962 )     2.25200328
  WF centre and spread    4  ( -0.781951, -0.970962, -0.970962 )     2.25200330
  Sum of centres and spreads ( -0.059502,  0.059502,  0.059502 )    10.25807669
 
     59    -0.795E-01     0.5913200087      -54.3285941318       0.12  <-- CONV
    0.100E+02
       O_IOD=    -54.1684363 O_D=     -0.1601578 O_TOT=    -54.3285941 <-- SPRD
Delta: O_IOD=  0.5255719E+00 O_D=  0.4511805E-02 O_TOT= -0.7952730E-01 <-- DLTA
 ------------------------------------------------------------------------------
 Cycle:     60
  WF centre and spread    1  ( -1.227382,  1.227382,  1.227382 )     3.50639268
  WF centre and spread    2  (  0.974154, -0.974154,  0.781142 )     2.25720258
  WF centre and spread    3  (  0.974154,  0.781142, -0.974154 )     2.25720257
  WF centre and spread    4  ( -0.781142, -0.974154, -0.974154 )     2.25720259
  Sum of centres and spreads ( -0.060216,  0.060216,  0.060216 )    10.27800043
 
     60    -0.856E-01     0.5654945527      -54.4141601453       0.12  <-- CONV
    0.100E+02
       O_IOD=    -54.2591095 O_D=     -0.1550507 O_TOT=    -54.4141601 <-- SPRD
Delta: O_IOD=  0.5796460E+00 O_D=  0.5107090E-02 O_TOT= -0.8556601E-01 <-- DLTA
 ------------------------------------------------------------------------------
 Cycle:     61
  WF centre and spread    1  ( -1.228477,  1.228477,  1.228477 )     3.50520593
  WF centre and spread    2  (  0.974629, -0.974629,  0.781009 )     2.25729928
  WF centre and spread    3  (  0.974629,  0.781009, -0.974629 )     2.25729927
  WF centre and spread    4  ( -0.781009, -0.974629, -0.974629 )     2.25729929
  Sum of centres and spreads ( -0.060229,  0.060229,  0.060229 )    10.27710378
 
     61    -0.133E-01     0.5378646962      -54.4275035611       0.13  <-- CONV
    0.100E+02
       O_IOD=    -54.2736875 O_D=     -0.1538160 O_TOT=    -54.4275036 <-- SPRD
Delta: O_IOD=  0.7827953E-01 O_D=  0.1234679E-02 O_TOT= -0.1334342E-01 <-- DLTA
 ------------------------------------------------------------------------------
 Cycle:     62
  WF centre and spread    1  ( -1.230636,  1.230636,  1.230636 )     3.50273168
  WF centre and spread    2  (  0.975566, -0.975566,  0.780746 )     2.25746399
  WF centre and spread    3  (  0.975566,  0.780746, -0.975566 )     2.25746398
  WF centre and spread    4  ( -0.780746, -0.975566, -0.975566 )     2.25746400
  Sum of centres and spreads ( -0.060249,  0.060249,  0.060249 )    10.27512366
 
     62    -0.262E-01     0.5342161196      -54.4537204384       0.13  <-- CONV
    0.100E+02
       O_IOD=    -54.3023287 O_D=     -0.1513918 O_TOT=    -54.4537204 <-- SPRD
Delta: O_IOD=  0.1543239E+00 O_D=  0.2424249E-02 O_TOT= -0.2621688E-01 <-- DLTA
 ------------------------------------------------------------------------------
 Cycle:     63
  WF centre and spread    1  ( -1.233779,  1.233779,  1.233779 )     3.49879382
  WF centre and spread    2  (  0.976939, -0.976939,  0.780365 )     2.25763882
  WF centre and spread    3  (  0.976939,  0.780365, -0.976939 )     2.25763882
  WF centre and spread    4  ( -0.780365, -0.976939, -0.976939 )     2.25763883
  Sum of centres and spreads ( -0.060267,  0.060267,  0.060267 )    10.27171029
 
     63    -0.380E-01     0.5270834198      -54.4917375183       0.13  <-- CONV
    0.100E+02
       O_IOD=    -54.3438534 O_D=     -0.1478841 O_TOT=    -54.4917375 <-- SPRD
Delta: O_IOD=  0.2249487E+00 O_D=  0.3507656E-02 O_TOT= -0.3801708E-01 <-- DLTA
 ------------------------------------------------------------------------------
 Cycle:     64
  WF centre and spread    1  ( -1.237791,  1.237791,  1.237791 )     3.49316032
  WF centre and spread    2  (  0.978702, -0.978702,  0.779883 )     2.25773974
  WF centre and spread    3  (  0.978702,  0.779883, -0.978702 )     2.25773974
  WF centre and spread    4  ( -0.779883, -0.978702, -0.978702 )     2.25773975
  Sum of centres and spreads ( -0.060269,  0.060269,  0.060269 )    10.26637955
 
     64    -0.483E-01     0.5168404967      -54.5400032201       0.13  <-- CONV
    0.100E+02
       O_IOD=    -54.3965484 O_D=     -0.1434548 O_TOT=    -54.5400032 <-- SPRD
Delta: O_IOD=  0.2873892E+00 O_D=  0.4429327E-02 O_TOT= -0.4826570E-01 <-- DLTA
 ------------------------------------------------------------------------------
 Cycle:     65
  WF centre and spread    1  ( -1.242526,  1.242526,  1.242526 )     3.48556802
  WF centre and spread    2  (  0.980804, -0.980804,  0.779317 )     2.25766182
  WF centre and spread    3  (  0.980804,  0.779317, -0.980804 )     2.25766181
  WF centre and spread    4  ( -0.779317, -0.980804, -0.980804 )     2.25766183
  Sum of centres and spreads ( -0.060235,  0.060235,  0.060235 )    10.25855348
 
     65    -0.567E-01     0.5040474069      -54.5966717989       0.13  <-- CONV
    0.100E+02
       O_IOD=    -54.4583612 O_D=     -0.1383106 O_TOT=    -54.5966718 <-- SPRD
Delta: O_IOD=  0.3395881E+00 O_D=  0.5144166E-02 O_TOT= -0.5666858E-01 <-- DLTA
 ------------------------------------------------------------------------------
 Cycle:     66
  WF centre and spread    1  ( -1.247824,  1.247824,  1.247824 )     3.47574719
  WF centre and spread    2  (  0.983183, -0.983183,  0.778689 )     2.25728617
  WF centre and spread    3  (  0.983183,  0.778689, -0.983183 )     2.25728616
  WF centre and spread    4  ( -0.778689, -0.983183, -0.983183 )     2.25728618
  Sum of centres and spreads ( -0.060147,  0.060147,  0.060147 )    10.24760571
 
     66    -0.631E-01     0.4894052140      -54.6598121820       0.13  <-- CONV
    0.100E+02
       O_IOD=    -54.5271230 O_D=     -0.1326892 O_TOT=    -54.6598122 <-- SPRD
Delta: O_IOD=  0.3803889E+00 O_D=  0.5621404E-02 O_TOT= -0.6314038E-01 <-- DLTA
 ------------------------------------------------------------------------------
 Cycle:     67
  WF centre and spread    1  ( -1.248498,  1.248498,  1.248498 )     3.47267628
  WF centre and spread    2  (  0.983520, -0.983520,  0.778587 )     2.25660827
  WF centre and spread    3  (  0.983520,  0.778587, -0.983520 )     2.25660826
  WF centre and spread    4  ( -0.778587, -0.983520, -0.983520 )     2.25660828
  Sum of centres and spreads ( -0.060045,  0.060045,  0.060045 )    10.24250108
 
     67    -0.973E-02     0.4736907888      -54.6695452784       0.14  <-- CONV
    0.100E+02
       O_IOD=    -54.5378703 O_D=     -0.1316750 O_TOT=    -54.6695453 <-- SPRD
Delta: O_IOD=  0.4639040E-01 O_D=  0.1014255E-02 O_TOT= -0.9733096E-02 <-- DLTA
 ------------------------------------------------------------------------------
 Cycle:     68
  WF centre and spread    1  ( -1.249832,  1.249832,  1.249832 )     3.46651806
  WF centre and spread    2  (  0.984189, -0.984189,  0.778385 )     2.25525203
  WF centre and spread    3  (  0.984189,  0.778385, -0.984189 )     2.25525203
  WF centre and spread    4  ( -0.778385, -0.984189, -0.984189 )     2.25525205
  Sum of centres and spreads ( -0.059840,  0.059840,  0.059840 )    10.23227416
 
     68    -0.193E-01     0.4718027299      -54.6888105440       0.14  <-- CONV
    0.100E+02
       O_IOD=    -54.5591182 O_D=     -0.1296923 O_TOT=    -54.6888105 <-- SPRD
Delta: O_IOD=  0.9185319E-01 O_D=  0.1982650E-02 O_TOT= -0.1926527E-01 <-- DLTA
 ------------------------------------------------------------------------------
 Cycle:     69
  WF centre and spread    1  ( -1.251794,  1.251794,  1.251794 )     3.45726688
  WF centre and spread    2  (  0.985177, -0.985177,  0.778090 )     2.25322185
  WF centre and spread    3  (  0.985177,  0.778090, -0.985177 )     2.25322184
  WF centre and spread    4  ( -0.778090, -0.985177, -0.985177 )     2.25322186
  Sum of centres and spreads ( -0.059530,  0.059530,  0.059530 )    10.21693242
 
     69    -0.283E-01     0.4680891156      -54.7171413709       0.14  <-- CONV
    0.100E+02
       O_IOD=    -54.5903013 O_D=     -0.1268401 O_TOT=    -54.7171414 <-- SPRD
Delta: O_IOD=  0.1351298E+00 O_D=  0.2852186E-02 O_TOT= -0.2833083E-01 <-- DLTA
 ------------------------------------------------------------------------------
 Cycle:     70
  WF centre and spread    1  ( -1.254334,  1.254334,  1.254334 )     3.44493140
  WF centre and spread    2  (  0.986465, -0.986465,  0.777711 )     2.25052633
  WF centre and spread    3  (  0.986465,  0.777711, -0.986465 )     2.25052632
  WF centre and spread    4  ( -0.777711, -0.986465, -0.986465 )     2.25052634
  Sum of centres and spreads ( -0.059116,  0.059116,  0.059116 )    10.19651039
 
     70    -0.367E-01     0.4626862030      -54.7538398764       0.14  <-- CONV
    0.100E+02
       O_IOD=    -54.6305733 O_D=     -0.1232665 O_TOT=    -54.7538399 <-- SPRD
Delta: O_IOD=  0.1750855E+00 O_D=  0.3573589E-02 O_TOT= -0.3669851E-01 <-- DLTA
 ------------------------------------------------------------------------------
 Cycle:     71
  WF centre and spread    1  ( -1.257390,  1.257390,  1.257390 )     3.42953841
  WF centre and spread    2  (  0.988027, -0.988027,  0.777259 )     2.24717751
  WF centre and spread    3  (  0.988027,  0.777259, -0.988027 )     2.24717751
  WF centre and spread    4  ( -0.777259, -0.988027, -0.988027 )     2.24717753
  Sum of centres and spreads ( -0.058595,  0.058595,  0.058595 )    10.17107095
 
     71    -0.442E-01     0.4557938096      -54.7980291212       0.14  <-- CONV
    0.100E+02
       O_IOD=    -54.6788668 O_D=     -0.1191623 O_TOT=    -54.7980291 <-- SPRD
Delta: O_IOD=  0.2107874E+00 O_D=  0.4104231E-02 O_TOT= -0.4418924E-01 <-- DLTA
 ------------------------------------------------------------------------------
 Cycle:     72
  WF centre and spread    1  ( -1.260890,  1.260890,  1.260890 )     3.41113636
  WF centre and spread    2  (  0.989835, -0.989835,  0.776747 )     2.24319009
  WF centre and spread    3  (  0.989835,  0.776747, -0.989835 )     2.24319009
  WF centre and spread    4  ( -0.776747, -0.989835, -0.989835 )     2.24319010
  Sum of centres and spreads ( -0.057967,  0.057967,  0.057967 )    10.14070664
 
     72    -0.507E-01     0.4476590953      -54.8487157884       0.14  <-- CONV
    0.100E+02
       O_IOD=    -54.7339643 O_D=     -0.1147515 O_TOT=    -54.8487158 <-- SPRD
Delta: O_IOD=  0.2415602E+00 O_D=  0.4410795E-02 O_TOT= -0.5068667E-01 <-- DLTA
 ------------------------------------------------------------------------------
 Cycle:     73
  WF centre and spread    1  ( -1.261324,  1.261324,  1.261324 )     3.40721980
  WF centre and spread    2  (  0.990091, -0.990091,  0.776664 )     2.24213890
  WF centre and spread    3  (  0.990091,  0.776664, -0.990091 )     2.24213889
  WF centre and spread    4  ( -0.776664, -0.990091, -0.990091 )     2.24213891
  Sum of centres and spreads ( -0.057806,  0.057806,  0.057806 )    10.13363651
 
     73    -0.788E-02     0.4385556470      -54.8565921645       0.14  <-- CONV
    0.100E+02
       O_IOD=    -54.7425166 O_D=     -0.1140755 O_TOT=    -54.8565922 <-- SPRD
Delta: O_IOD=  0.2830524E-01 O_D=  0.6759640E-03 O_TOT= -0.7876376E-02 <-- DLTA
 ------------------------------------------------------------------------------
 Cycle:     74
  WF centre and spread    1  ( -1.262190,  1.262190,  1.262190 )     3.39941084
  WF centre and spread    2  (  0.990603, -0.990603,  0.776502 )     2.24005075
  WF centre and spread    3  (  0.990603,  0.776502, -0.990603 )     2.24005075
  WF centre and spread    4  ( -0.776502, -0.990603, -0.990603 )     2.24005077
  Sum of centres and spreads ( -0.057486,  0.057486,  0.057486 )    10.11956311
 
     74    -0.157E-01     0.4374477500      -54.8722499379       0.15  <-- CONV
    0.100E+02
       O_IOD=    -54.7594912 O_D=     -0.1127588 O_TOT=    -54.8722499 <-- SPRD
Delta: O_IOD=  0.5639564E-01 O_D=  0.1316761E-02 O_TOT= -0.1565777E-01 <-- DLTA
 ------------------------------------------------------------------------------
 Cycle:     75
  WF centre and spread    1  ( -1.263476,  1.263476,  1.263476 )     3.38777879
  WF centre and spread    2  (  0.991364, -0.991364,  0.776263 )     2.23695916
  WF centre and spread    3  (  0.991364,  0.776263, -0.991364 )     2.23695916
  WF centre and spread    4  ( -0.776263, -0.991364, -0.991364 )     2.23695917
  Sum of centres and spreads ( -0.057010,  0.057010,  0.057010 )    10.09865628
 
     75    -0.232E-01     0.4352392312      -54.8954603465       0.15  <-- CONV
    0.100E+02
       O_IOD=    -54.7845859 O_D=     -0.1108744 O_TOT=    -54.8954603 <-- SPRD
Delta: O_IOD=  0.8391472E-01 O_D=  0.1884377E-02 O_TOT= -0.2321041E-01 <-- DLTA
 ------------------------------------------------------------------------------
 Cycle:     76
  WF centre and spread    1  ( -1.265166,  1.265166,  1.265166 )     3.37243971
  WF centre and spread    2  (  0.992368, -0.992368,  0.775953 )     2.23291604
  WF centre and spread    3  (  0.992368,  0.775953, -0.992368 )     2.23291603
  WF centre and spread    4  ( -0.775953, -0.992368, -0.992368 )     2.23291605
  Sum of centres and spreads ( -0.056383,  0.056383,  0.056383 )    10.07118783
 
     76    -0.304E-01     0.4319498124      -54.9258649407       0.15  <-- CONV
    0.100E+02
       O_IOD=    -54.8173332 O_D=     -0.1085317 O_TOT=    -54.9258649 <-- SPRD
Delta: O_IOD=  0.1105140E+00 O_D=  0.2342666E-02 O_TOT= -0.3040459E-01 <-- DLTA
 ------------------------------------------------------------------------------
 Cycle:     77
  WF centre and spread    1  ( -1.267237,  1.267237,  1.267237 )     3.35355798
  WF centre and spread    2  (  0.993603, -0.993603,  0.775582 )     2.22799029
  WF centre and spread    3  (  0.993603,  0.775582, -0.993603 )     2.22799029
  WF centre and spread    4  ( -0.775582, -0.993603, -0.993603 )     2.22799031
  Sum of centres and spreads ( -0.055613,  0.055613,  0.055613 )    10.03752887
 
     77    -0.371E-01     0.4276106792      -54.9629830163       0.15  <-- CONV
    0.100E+02
       O_IOD=    -54.8571102 O_D=     -0.1058728 O_TOT=    -54.9629830 <-- SPRD
Delta: O_IOD=  0.1358598E+00 O_D=  0.2658942E-02 O_TOT= -0.3711808E-01 <-- DLTA
 ------------------------------------------------------------------------------
 Cycle:     78
  WF centre and spread    1  ( -1.269664,  1.269664,  1.269664 )     3.33134741
  WF centre and spread    2  (  0.995056, -0.995056,  0.775157 )     2.22226594
  WF centre and spread    3  (  0.995056,  0.775157, -0.995056 )     2.22226594
  WF centre and spread    4  ( -0.775157, -0.995056, -0.995056 )     2.22226595
  Sum of centres and spreads ( -0.054709,  0.054709,  0.054709 )     9.99814525
 
     78    -0.432E-01     0.4222630646      -55.0062222643       0.15  <-- CONV
    0.100E+02
       O_IOD=    -54.9031553 O_D=     -0.1030669 O_TOT=    -55.0062223 <-- SPRD
Delta: O_IOD=  0.1596383E+00 O_D=  0.2805850E-02 O_TOT= -0.4323925E-01 <-- DLTA
 ------------------------------------------------------------------------------
 Cycle:     79
  WF centre and spread    1  ( -1.269977,  1.269977,  1.269977 )     3.32720473
  WF centre and spread    2  (  0.995269, -0.995269,  0.775089 )     2.22109825
  WF centre and spread    3  (  0.995269,  0.775089, -0.995269 )     2.22109825
  WF centre and spread    4  ( -0.775089, -0.995269, -0.995269 )     2.22109826
  Sum of centres and spreads ( -0.054527,  0.054527,  0.054527 )     9.99049949
 
     79    -0.683E-02     0.4159565917      -55.0130521777       0.15  <-- CONV
    0.100E+02
       O_IOD=    -54.9103786 O_D=     -0.1026736 O_TOT=    -55.0130522 <-- SPRD
Delta: O_IOD=  0.1931235E-01 O_D=  0.3933351E-03 O_TOT= -0.6829913E-02 <-- DLTA
 ------------------------------------------------------------------------------
 Cycle:     80
  WF centre and spread    1  ( -1.270603,  1.270603,  1.270603 )     3.31896422
  WF centre and spread    2  (  0.995697, -0.995697,  0.774955 )     2.21878425
  WF centre and spread    3  (  0.995697,  0.774955, -0.995697 )     2.21878425
  WF centre and spread    4  ( -0.774955, -0.995697, -0.995697 )     2.21878426
  Sum of centres and spreads ( -0.054165,  0.054165,  0.054165 )     9.97531698
 
     80    -0.136E-01     0.4151108840      -55.0266526388       0.16  <-- CONV
    0.100E+02
       O_IOD=    -54.9247413 O_D=     -0.1019114 O_TOT=    -55.0266526 <-- SPRD
Delta: O_IOD=  0.3873970E-01 O_D=  0.7622248E-03 O_TOT= -0.1360046E-01 <-- DLTA
 ------------------------------------------------------------------------------
 Cycle:     81
  WF centre and spread    1  ( -1.271542,  1.271542,  1.271542 )     3.30673316
  WF centre and spread    2  (  0.996336, -0.996336,  0.774758 )     2.21537108
  WF centre and spread    3  (  0.996336,  0.774758, -0.996336 )     2.21537108
  WF centre and spread    4  ( -0.774758, -0.996336, -0.996336 )     2.21537109
  Sum of centres and spreads ( -0.053628,  0.053628,  0.053628 )     9.95284641
 
     81    -0.202E-01     0.4134070071      -55.0468749446       0.16  <-- CONV
    0.100E+02
       O_IOD=    -54.9460446 O_D=     -0.1008304 O_TOT=    -55.0468749 <-- SPRD
Delta: O_IOD=  0.5830472E-01 O_D=  0.1081020E-02 O_TOT= -0.2022231E-01 <-- DLTA
 ------------------------------------------------------------------------------
 Cycle:     82
  WF centre and spread    1  ( -1.272792,  1.272792,  1.272792 )     3.29068221
  WF centre and spread    2  (  0.997184, -0.997184,  0.774502 )     2.21093077
  WF centre and spread    3  (  0.997184,  0.774502, -0.997184 )     2.21093076
  WF centre and spread    4  ( -0.774502, -0.997184, -0.997184 )     2.21093078
  Sum of centres and spreads ( -0.052925,  0.052925,  0.052925 )     9.92347452
 
     82    -0.266E-01     0.4108243219      -55.0734769554       0.16  <-- CONV
    0.100E+02
       O_IOD=    -54.9739718 O_D=     -0.0995052 O_TOT=    -55.0734770 <-- SPRD
Delta: O_IOD=  0.7799886E-01 O_D=  0.1325213E-02 O_TOT= -0.2660201E-01 <-- DLTA
 ------------------------------------------------------------------------------
 Cycle:     83
  WF centre and spread    1  ( -1.274347,  1.274347,  1.274347 )     3.27104635
  WF centre and spread    2  (  0.998237, -0.998237,  0.774195 )     2.20555863
  WF centre and spread    3  (  0.998237,  0.774195, -0.998237 )     2.20555862
  WF centre and spread    4  ( -0.774195, -0.998237, -0.998237 )     2.20555864
  Sum of centres and spreads ( -0.052068,  0.052068,  0.052068 )     9.88772224
 
     83    -0.326E-01     0.4073359875      -55.1061180836       0.16  <-- CONV
    0.100E+02
       O_IOD=    -55.0080853 O_D=     -0.0980327 O_TOT=    -55.1061181 <-- SPRD
Delta: O_IOD=  0.9776547E-01 O_D=  0.1472414E-02 O_TOT= -0.3264113E-01 <-- DLTA
 ------------------------------------------------------------------------------
 Cycle:     84
  WF centre and spread    1  ( -1.276202,  1.276202,  1.276202 )     3.24812470
  WF centre and spread    2  (  0.999487, -0.999487,  0.773843 )     2.19937096
  WF centre and spread    3  (  0.999487,  0.773843, -0.999487 )     2.19937095
  WF centre and spread    4  ( -0.773843, -0.999487, -0.999487 )     2.19937097
  Sum of centres and spreads ( -0.051071,  0.051071,  0.051071 )     9.84623758
 
     84    -0.382E-01     0.4029120973      -55.1443547281       0.16  <-- CONV
    0.100E+02
       O_IOD=    -55.0478256 O_D=     -0.0965291 O_TOT=    -55.1443547 <-- SPRD
Delta: O_IOD=  0.1174845E+00 O_D=  0.1503628E-02 O_TOT= -0.3823664E-01 <-- DLTA
 ------------------------------------------------------------------------------
 Cycle:     85
  WF centre and spread    1  ( -1.276455,  1.276455,  1.276455 )     3.24408258
  WF centre and spread    2  (  0.999678, -0.999678,  0.773787 )     2.19822356
  WF centre and spread    3  (  0.999678,  0.773787, -0.999678 )     2.19822355
  WF centre and spread    4  ( -0.773787, -0.999678, -0.999678 )     2.19822357
  Sum of centres and spreads ( -0.050887,  0.050887,  0.050887 )     9.83875326
 
     85    -0.612E-02     0.3975239438      -55.1504710651       0.16  <-- CONV
    0.100E+02
       O_IOD=    -55.0541412 O_D=     -0.0963299 O_TOT=    -55.1504711 <-- SPRD
Delta: O_IOD=  0.1514281E-01 O_D=  0.1992266E-03 O_TOT= -0.6116337E-02 <-- DLTA
 ------------------------------------------------------------------------------
 Cycle:     86
  WF centre and spread    1  ( -1.276964,  1.276964,  1.276964 )     3.23605409
  WF centre and spread    2  (  1.000060, -1.000060,  0.773676 )     2.19595320
  WF centre and spread    3  (  1.000060,  0.773676, -1.000060 )     2.19595320
  WF centre and spread    4  ( -0.773676, -1.000060, -1.000060 )     2.19595321
  Sum of centres and spreads ( -0.050521,  0.050521,  0.050521 )     9.82391370
 
     86    -0.122E-01     0.3967322502      -55.1626540151       0.16  <-- CONV
    0.100E+02
       O_IOD=    -55.0667061 O_D=     -0.0959479 O_TOT=    -55.1626540 <-- SPRD
Delta: O_IOD=  0.3053426E-01 O_D=  0.3819829E-03 O_TOT= -0.1218295E-01 <-- DLTA
 ------------------------------------------------------------------------------
 Cycle:     87
  WF centre and spread    1  ( -1.277730,  1.277730,  1.277730 )     3.22416693
  WF centre and spread    2  (  1.000632, -1.000632,  0.773514 )     2.19261286
  WF centre and spread    3  (  1.000632,  0.773514, -1.000632 )     2.19261285
  WF centre and spread    4  ( -0.773514, -1.000632, -1.000632 )     2.19261287
  Sum of centres and spreads ( -0.049980,  0.049980,  0.049980 )     9.80200551
 
     87    -0.181E-01     0.3951311233      -55.1807770066       0.17  <-- CONV
    0.100E+02
       O_IOD=    -55.0853604 O_D=     -0.0954166 O_TOT=    -55.1807770 <-- SPRD
Delta: O_IOD=  0.4634176E-01 O_D=  0.5313289E-03 O_TOT= -0.1812299E-01 <-- DLTA
 ------------------------------------------------------------------------------
 Cycle:     88
  WF centre and spread    1  ( -1.278758,  1.278758,  1.278758 )     3.20862083
  WF centre and spread    2  (  1.001394, -1.001394,  0.773304 )     2.18828286
  WF centre and spread    3  (  1.001394,  0.773304, -1.001394 )     2.18828286
  WF centre and spread    4  ( -0.773304, -1.001394, -1.001394 )     2.18828287
  Sum of centres and spreads ( -0.049274,  0.049274,  0.049274 )     9.77346941
 
     88    -0.239E-01     0.3926894153      -55.2046310298       0.17  <-- CONV
    0.100E+02
       O_IOD=    -55.1098456 O_D=     -0.0947854 O_TOT=    -55.2046310 <-- SPRD
Delta: O_IOD=  0.6268535E-01 O_D=  0.6311886E-03 O_TOT= -0.2385402E-01 <-- DLTA
 ------------------------------------------------------------------------------
 Cycle:     89
  WF centre and spread    1  ( -1.280051,  1.280051,  1.280051 )     3.18968684
  WF centre and spread    2  (  1.002343, -1.002343,  0.773051 )     2.18306896
  WF centre and spread    3  (  1.002343,  0.773051, -1.002343 )     2.18306896
  WF centre and spread    4  ( -0.773051, -1.002343, -1.002343 )     2.18306897
  Sum of centres and spreads ( -0.048416,  0.048416,  0.048416 )     9.73889373
 
     89    -0.293E-01     0.3893653177      -55.2339173306       0.17  <-- CONV
    0.100E+02
       O_IOD=    -55.1397990 O_D=     -0.0941183 O_TOT=    -55.2339173 <-- SPRD
Delta: O_IOD=  0.7961209E-01 O_D=  0.6670344E-03 O_TOT= -0.2928630E-01 <-- DLTA
 ------------------------------------------------------------------------------
 Cycle:     90
  WF centre and spread    1  ( -1.281608,  1.281608,  1.281608 )     3.16770517
  WF centre and spread    2  (  1.003475, -1.003475,  0.772764 )     2.17709941
  WF centre and spread    3  (  1.003475,  0.772764, -1.003475 )     2.17709940
  WF centre and spread    4  ( -0.772764, -1.003475, -1.003475 )     2.17709942
  Sum of centres and spreads ( -0.047423,  0.047423,  0.047423 )     9.69900340
 
     90    -0.343E-01     0.3851107143      -55.2682400119       0.17  <-- CONV
    0.100E+02
       O_IOD=    -55.1747484 O_D=     -0.0934916 O_TOT=    -55.2682400 <-- SPRD
Delta: O_IOD=  0.9707284E-01 O_D=  0.6267833E-03 O_TOT= -0.3432268E-01 <-- DLTA
 ------------------------------------------------------------------------------
 Cycle:     91
  WF centre and spread    1  ( -1.298947,  1.298947,  1.298947 )     2.96469902
  WF centre and spread    2  (  1.015634, -1.015634,  0.770479 )     2.12611486
  WF centre and spread    3  (  1.015634,  0.770479, -1.015634 )     2.12611485
  WF centre and spread    4  ( -0.770479, -1.015634, -1.015634 )     2.12611486
  Sum of centres and spreads ( -0.038157,  0.038157,  0.038157 )     9.34304359
 
     91    -0.331E+00     0.3798770938      -55.5988198056       0.17  <-- CONV
    0.100E+02
       O_IOD=    -55.5019650 O_D=     -0.0968548 O_TOT=    -55.5988198 <-- SPRD
Delta: O_IOD=  0.1142702E+01 O_D= -0.3363227E-02 O_TOT= -0.3305798E+00 <-- DLTA
 ------------------------------------------------------------------------------
 Cycle:     92
  WF centre and spread    1  ( -1.299286,  1.299286,  1.299286 )     2.95995014
  WF centre and spread    2  (  1.015910, -1.015910,  0.770442 )     2.12491976
  WF centre and spread    3  (  1.015910,  0.770442, -1.015910 )     2.12491976
  WF centre and spread    4  ( -0.770442, -1.015910, -1.015910 )     2.12491977
  Sum of centres and spreads ( -0.037909,  0.037909,  0.037909 )     9.33470943
 
     92    -0.706E-02     0.3146176016      -55.6058825013       0.17  <-- CONV
    0.100E+02
       O_IOD=    -55.5088856 O_D=     -0.0969969 O_TOT=    -55.6058825 <-- SPRD
Delta: O_IOD=  0.2181050E-01 O_D= -0.1421504E-03 O_TOT= -0.7062696E-02 <-- DLTA
 ------------------------------------------------------------------------------
 Cycle:     93
  WF centre and spread    1  ( -1.313051,  1.313051,  1.313051 )     2.80987624
  WF centre and spread    2  (  1.026568, -1.026568,  0.769571 )     2.09065704
  WF centre and spread    3  (  1.026568,  0.769571, -1.026568 )     2.09065704
  WF centre and spread    4  ( -0.769571, -1.026568, -1.026568 )     2.09065705
  Sum of centres and spreads ( -0.029486,  0.029486,  0.029486 )     9.08184738
 
     93    -0.238E+00     0.3129327666      -55.8441057989       0.18  <-- CONV
    0.100E+02
       O_IOD=    -55.7402057 O_D=     -0.1039001 O_TOT=    -55.8441058 <-- SPRD
Delta: O_IOD=  0.9355623E+00 O_D= -0.6903168E-02 O_TOT= -0.2382233E+00 <-- DLTA
 ------------------------------------------------------------------------------
 Cycle:     94
  WF centre and spread    1  ( -1.313504,  1.313504,  1.313504 )     2.80533176
  WF centre and spread    2  (  1.026942, -1.026942,  0.769560 )     2.08971130
  WF centre and spread    3  (  1.026942,  0.769560, -1.026942 )     2.08971130
  WF centre and spread    4  ( -0.769560, -1.026942, -1.026942 )     2.08971131
  Sum of centres and spreads ( -0.029179,  0.029179,  0.029179 )     9.07446568
 
     94    -0.725E-02     0.2415008138      -55.8513565518       0.18  <-- CONV
    0.100E+02
       O_IOD=    -55.7473195 O_D=     -0.1040370 O_TOT=    -55.8513566 <-- SPRD
Delta: O_IOD=  0.3126680E-01 O_D= -0.1369192E-03 O_TOT= -0.7250753E-02 <-- DLTA
 ------------------------------------------------------------------------------
 Cycle:     95
  WF centre and spread    1  ( -1.320977,  1.320977,  1.320977 )     2.73807515
  WF centre and spread    2  (  1.033307, -1.033307,  0.769536 )     2.07701194
  WF centre and spread    3  (  1.033307,  0.769536, -1.033307 )     2.07701194
  WF centre and spread    4  ( -0.769536, -1.033307, -1.033307 )     2.07701194
  Sum of centres and spreads ( -0.023900,  0.023900,  0.023900 )     8.96911096
 
     95    -0.110E+00     0.2387795762      -55.9615082232       0.18  <-- CONV
    0.100E+02
       O_IOD=    -55.8564891 O_D=     -0.1050191 O_TOT=    -55.9615082 <-- SPRD
Delta: O_IOD=  0.5243743E+00 O_D= -0.9820525E-03 O_TOT= -0.1101517E+00 <-- DLTA
 ------------------------------------------------------------------------------
 Cycle:     96
  WF centre and spread    1  ( -1.325710,  1.325710,  1.325710 )     2.70561519
  WF centre and spread    2  (  1.037489, -1.037489,  0.769669 )     2.07276712
  WF centre and spread    3  (  1.037489,  0.769669, -1.037489 )     2.07276711
  WF centre and spread    4  ( -0.769669, -1.037489, -1.037489 )     2.07276712
  Sum of centres and spreads ( -0.020401,  0.020401,  0.020401 )     8.92391654
 
     96    -0.579E-01     0.1912478770      -56.0194021240       0.18  <-- CONV
    0.100E+02
       O_IOD=    -55.9148743 O_D=     -0.1045278 O_TOT=    -56.0194021 <-- SPRD
Delta: O_IOD=  0.3428641E+00 O_D=  0.4912337E-03 O_TOT= -0.5789390E-01 <-- DLTA
 ------------------------------------------------------------------------------
 Cycle:     97
  WF centre and spread    1  ( -1.325672,  1.325672,  1.325672 )     2.70530331
  WF centre and spread    2  (  1.037502, -1.037502,  0.769672 )     2.07269663
  WF centre and spread    3  (  1.037502,  0.769672, -1.037502 )     2.07269663
  WF centre and spread    4  ( -0.769672, -1.037502, -1.037502 )     2.07269663
  Sum of centres and spreads ( -0.020341,  0.020341,  0.020341 )     8.92339320
 
     97    -0.114E-03     0.1605644900      -56.0195158355       0.19  <-- CONV
    0.100E+02
       O_IOD=    -55.9151136 O_D=     -0.1044022 O_TOT=    -56.0195158 <-- SPRD
Delta: O_IOD= -0.3449938E-02 O_D=  0.1256148E-03 O_TOT= -0.1137115E-03 <-- DLTA
 ------------------------------------------------------------------------------
 Cycle:     98
  WF centre and spread    1  ( -1.325598,  1.325598,  1.325598 )     2.70468456
  WF centre and spread    2  (  1.037528, -1.037528,  0.769679 )     2.07255782
  WF centre and spread    3  (  1.037528,  0.769679, -1.037528 )     2.07255782
  WF centre and spread    4  ( -0.769679, -1.037528, -1.037528 )     2.07255782
  Sum of centres and spreads ( -0.020221,  0.020221,  0.020221 )     8.92235803
 
     98    -0.228E-03     0.1604520617      -56.0197434487       0.19  <-- CONV
    0.100E+02
       O_IOD=    -55.9155891 O_D=     -0.1041544 O_TOT=    -56.0197434 <-- SPRD
Delta: O_IOD= -0.6808059E-02 O_D=  0.2478498E-03 O_TOT= -0.2276132E-03 <-- DLTA
 ------------------------------------------------------------------------------
 Cycle:     99
  WF centre and spread    1  ( -1.325488,  1.325488,  1.325488 )     2.70376889
  WF centre and spread    2  (  1.037567, -1.037567,  0.769688 )     2.07235497
  WF centre and spread    3  (  1.037567,  0.769688, -1.037567 )     2.07235497
  WF centre and spread    4  ( -0.769688, -1.037567, -1.037567 )     2.07235497
  Sum of centres and spreads ( -0.020042,  0.020042,  0.020042 )     8.92083381
 
     99    -0.342E-03     0.1602318152      -56.0200853794       0.19  <-- CONV
    0.100E+02
       O_IOD=    -55.9162945 O_D=     -0.1037908 O_TOT=    -56.0200854 <-- SPRD
Delta: O_IOD= -0.9984653E-02 O_D=  0.3635439E-03 O_TOT= -0.3419307E-03 <-- DLTA
 ------------------------------------------------------------------------------
 Cycle:    100
  WF centre and spread    1  ( -1.325347,  1.325347,  1.325347 )     2.70257079
  WF centre and spread    2  (  1.037620, -1.037620,  0.769700 )     2.07209434
  WF centre and spread    3  (  1.037620,  0.769700, -1.037620 )     2.07209434
  WF centre and spread    4  ( -0.769700, -1.037620, -1.037620 )     2.07209434
  Sum of centres and spreads ( -0.019806,  0.019806,  0.019806 )     8.91885381
 
    100    -0.457E-03     0.1599126008      -56.0205423893       0.19  <-- CONV
    0.100E+02
       O_IOD=    -55.9172216 O_D=     -0.1033208 O_TOT=    -56.0205424 <-- SPRD
Delta: O_IOD= -0.1289576E-01 O_D=  0.4700137E-03 O_TOT= -0.4570098E-03 <-- DLTA
 ------------------------------------------------------------------------------

 Writing checkpoint file gaas.chk... done

 Final State
  WF centre and spread    1  ( -1.325347,  1.325347,  1.325347 )     2.70257079
  WF centre and spread    2  (  1.037620, -1.037620,  0.769700 )     2.07209434
  WF centre and spread    3  (  1.037620,  0.769700, -1.037620 )     2.07209434
  WF centre and spread    4  ( -0.769700, -1.037620, -1.037620 )     2.07209434
  Sum of centres and spreads ( -0.019806,  0.019806,  0.019806 )     8.91885381
 
         Spreads (Ang^2)       Omega IOD+C  =   -55.917221564
        ================       Omega D      =    -0.103320825
                               Constraint   =     0.000000000
    Final Spread (Ang^2)       Omega Total  =   -56.020542389
 ------------------------------------------------------------------------------
 Time for wannierise            0.192 (sec)

 Writing checkpoint file gaas.chk... done

 Time for plotting              0.000 (sec)
 Total Execution Time           0.276 (sec)

 *===========================================================================*
 |                             TIMING INFORMATION                            |
 *===========================================================================*
 |    Tag                                                Ncalls      Time (s)|
 |---------------------------------------------------------------------------|
 |kmesh: get                                        :         1         0.056|
 |overlap: read                                     :         1         0.016|
 |wann: main                                        :         1         0.192|
 |plot: main                                        :         1         0.000|
 *---------------------------------------------------------------------------*
 
 All done: wannier90 exiting
