 written on  5Jul2023 at 16:42:15 
          64           4           8

   0.0000000000  +0.0000000000  +0.0000000000
   0.0000000000  +0.0000000000
  +0.3269619098  -0.9287963065
  -0.0252046133  +0.1723086258
  -0.0089338883  -0.0052895478
  -0.0000265975  -0.0000178029
  -0.0000237112  -0.0000022736
  -0.0000023510  +0.0000144060
  +0.0000000180  +0.0000000351
  +0.0000000000  +0.0000000000
  +0.1673351460  -0.0472564855
  +0.8788083619  -0.4435557780
  +0.0157145770  -0.0217475026
  +0.0000007702  -0.0000531994
  -0.0000379819  -0.0000192174
  +0.0000115681  -0.0000412967
  -0.0000001116  +0.0000000049
  +0.0000000000  +0.0000000000
  -0.0133688129  +0.0045139931
  -0.0124010994  +0.0217900593
  +0.0863136206  -0.9958525292
  -0.0000039074  +0.0000449875
  +0.0000134529  -0.0000105241
  +0.0000291768  +0.0000220675
  +0.0000000786  -0.0000000568
  +0.0000000000  +0.0000000000
  +0.0000000103  +0.0000000053
  +0.0000000213  -0.0000000110
  -0.0000000134  +0.0000000155
  -0.0004800570  +0.0012675702
  -0.0001899489  -0.0001227848
  -0.0000954632  +0.0018589024
  -0.9999973129  -0.0001458492

   0.0000000000  +0.2500000000  +0.0000000000
   0.0000000000  +0.0000000000
  -0.0027099793  -0.0033788481
  -0.2705550976  -0.9625810518
  -0.0004372215  +0.0034329064
  +0.0083098610  -0.0113539453
  -0.0009034989  +0.0001333411
  +0.0011834289  -0.0004228344
  +0.0020475571  +0.0015328328
  +0.0000000000  +0.0000000000
  -0.7244345892  +0.1670496986
  +0.0032174364  -0.0000415636
  -0.2095927258  -0.3498866738
  -0.0006096953  -0.0009092704
  -0.0184141255  +0.3723306345
  -0.0263974529  +0.0589553590
  +0.3497965116  -0.1242104504
  +0.0000000000  +0.0000000000
  -0.2014984063  -0.1198906336
  +0.0013477899  +0.0036211387
  -0.1881203951  +0.8229883679
  +0.0006157568  -0.0011902599
  -0.2723463367  +0.2591675610
  -0.2882624465  +0.0839831644
  +0.0273360941  +0.0085289273
  +0.0000000000  +0.0000000000
  +0.1717254935  +0.0437435367
  -0.0004415138  -0.0004780282
  -0.0034318493  -0.0757314287
  +0.0015201558  -0.0032900697
  -0.3699750701  +0.6344511781
  +0.4467327664  -0.2901218944
  -0.3710757420  -0.0445907804

   0.0000000000  +0.5000000000  +0.0000000000
   0.0000000000  +0.0000000000
  +0.0000000000  +0.0000000000
  -0.1091280364  -0.9939609340
  +0.0111120277  -0.0018939441
  -0.0000197611  +0.0000233751
  +0.0000004485  +0.0000003600
  +0.0003537783  -0.0023389143
  +0.0002695250  -0.0000031211
  +0.0000000000  +0.0000000000
  +0.0000000000  +0.0000000000
  -0.0010183219  -0.0084649294
  -0.8491828175  +0.1538140986
  -0.0000331465  +0.0000103873
  +0.0001600880  +0.0001192568
  +0.0699744431  -0.4974513182
  +0.0529286832  -0.0011620343
  +0.0000000000  +0.0000000000
  +0.0000000000  +0.0000000000
  +0.0000013206  -0.0000004326
  -0.0000469409  -0.0001157037
  -0.0050712317  -0.0016350836
  +0.4196622589  -0.9076646677
  +0.0001803364  -0.0000121271
  +0.0000040118  +0.0000169455
  +0.0000000000  +0.0000000000
  +0.0000000000  +0.0000000000
  -0.0000577560  -0.0001611102
  -0.0114659923  +0.0048974958
  -0.0000027680  -0.0000973648
  -0.0000041429  -0.0000015806
  +0.0106609139  +0.1255104982
  +0.9619873625  -0.2419881833

   0.0000000000  +0.7500000000  +0.0000000000
   0.0000000000  +0.0000000000
  -0.0044906212  +0.0022590247
  +0.7453731371  -0.6664648048
  -0.0024656027  -0.0019516528
  +0.0101596341  -0.0097430975
  +0.0011723220  +0.0001630167
  -0.0002675442  +0.0011043258
  +0.0021560574  +0.0017048928
  +0.0000000000  +0.0000000000
  -0.0184835129  -0.7433438361
  -0.0017593796  -0.0036800688
  -0.4064273405  -0.0328364885
  +0.0003761534  +0.0010010898
  -0.1354401460  +0.3470901106
  +0.0308325427  +0.0569638624
  -0.3519743473  +0.1179917562
  +0.0000000000  +0.0000000000
  +0.1531953081  -0.1774156772
  +0.0026078262  -0.0028356595
  +0.5766553529  +0.6166485144
  -0.0008078174  +0.0011161447
  -0.3361726916  +0.1681517163
  -0.1008291128  +0.2828054477
  -0.0273928067  -0.0082748517
  +0.0000000000  +0.0000000000
  -0.0755373429  +0.1601976511
  -0.0002358439  +0.0006492748
  -0.0641243564  -0.0405433680
  -0.0022018952  +0.0029683505
  -0.5470238318  +0.4903319028
  +0.0347214847  -0.5315933746
  +0.3703586082  +0.0473069176

   0.2500000000  +0.0000000000  +0.0000000000
   0.0000000000  +0.0000000000
  +0.0067126615  +0.0110960996
  -0.5065862920  +0.8619429188
  +0.0041003173  +0.0014998113
  -0.0021349152  +0.0137822044
  +0.0023030020  -0.0041926535
  +0.0001044920  +0.0015952677
  +0.0019808805  -0.0036904404
  +0.0000000000  +0.0000000000
  +0.3862227929  +0.6255243096
  +0.0073184557  -0.0128853078
  +0.4056579902  +0.1227066566
  +0.0000862654  -0.0004984976
  +0.1773374261  -0.3350238156
  +0.0055516086  +0.0677959432
  +0.1719444826  -0.3191153111
  +0.0000000000  +0.0000000000
  +0.0248805329  -0.2427344880
  -0.0018532965  +0.0006176138
  +0.4905374126  +0.6821913622
  +0.0006364585  -0.0010352935
  -0.3528995011  +0.1621121950
  +0.1386736314  -0.2522539138
  -0.0262837182  +0.0084828009
  +0.0000000000  +0.0000000000
  +0.0672037352  +0.1631973501
  +0.0006514406  -0.0007794990
  -0.0663655266  -0.0318012615
  +0.0001040628  +0.0013979751
  -0.4302808467  +0.5696723228
  -0.0102147120  +0.5634082775
  +0.2284837331  -0.2898713096

   0.2500000000  +0.2500000000  +0.0000000000
   0.0000000000  +0.0000000000
  -0.0000196045  +0.0145854437
  -0.2191692407  +0.9754435478
  +0.0009832629  -0.0035311579
  +0.0136166330  +0.0026563381
  +0.0042306869  -0.0023838648
  +0.0013337256  -0.0000039399
  -0.0008670201  -0.0054750947
  +0.0000000000  +0.0000000000
  -0.7681294911  -0.1314487573
  +0.0151731733  +0.0065226386
  +0.2604585688  +0.2089503978
  +0.0002573093  -0.0004604039
  +0.1118773487  +0.3333556823
  -0.0275484428  +0.0635194015
  +0.3904262208  -0.0075834694
  +0.0000000000  +0.0000000000
  -0.1886033513  -0.0234594180
  +0.0018790574  +0.0000175642
  -0.7016566847  -0.5117291982
  -0.0002859232  +0.0015958462
  +0.1143784716  +0.2968791850
  -0.1085335689  +0.3103895630
  +0.0185043669  -0.0002883534
  +0.0000000000  +0.0000000000
  +0.1666769419  +0.0249493823
  -0.0008921511  -0.0002782162
  +0.0616327376  +0.0467657413
  +0.0005434180  +0.0003807859
  +0.2689518479  +0.7479872214
  +0.1582564542  -0.4177678670
  -0.3661063862  +0.0134320839

   0.2500000000  +0.5000000000  +0.0000000000
   0.0000000000  +0.0000000000
  +0.0000000000  +0.0000000000
  -0.0865345826  +0.6414532273
  -0.6377588980  -0.3845804102
  +0.0050478689  -0.0071203040
  -0.0741391088  +0.1402724868
  -0.0041533569  +0.0015545739
  -0.0337960506  -0.0001465521
  +0.0000000000  +0.0000000000
  +0.0000000000  +0.0000000000
  -0.0537847788  +0.3914270954
  +0.4357526243  +0.2642470617
  +0.0445486660  -0.0475565329
  -0.3535327326  +0.6656827086
  +0.0054693425  -0.0026047141
  -0.1085505564  -0.0004204947
  +0.0000000000  +0.0000000000
  +0.0000000000  +0.0000000000
  -0.0020764709  +0.0046070502
  +0.0048306362  +0.0047557780
  -0.8389507494  +0.4137106669
  -0.0545122820  +0.0450860574
  +0.3267217373  -0.1146738745
  -0.0037160564  +0.0042770706
  +0.0000000000  +0.0000000000
  +0.0000000000  +0.0000000000
  +0.0080621949  -0.0612279041
  -0.0458946016  -0.0274766225
  +0.0076787988  -0.0090585149
  -0.0964985539  +0.1841000542
  +0.0074898658  +0.0134450018
  +0.9745467999  -0.0008441883

   0.2500000000  +0.7500000000  +0.0000000000
   0.0000000000  +0.0000000000
  +0.0000000000  +0.0000000000
  -0.0594859736  -0.6435559784
  -0.7450148675  +0.0111988588
  -0.0096132798  -0.0042469890
  +0.1010366920  -0.1253773151
  -0.0040452949  +0.0025930202
  -0.0326056070  -0.0000650196
  +0.0000000000  +0.0000000000
  +0.0000000000  +0.0000000000
  +0.0374441406  +0.3966374170
  -0.5130423175  +0.0087044305
  +0.0658061872  +0.0321276407
  -0.4691268814  +0.5846260213
  -0.0031782127  -0.0005778030
  +0.1036716635  +0.0000721253
  +0.0000000000  +0.0000000000
  +0.0000000000  +0.0000000000
  -0.0030503741  -0.0040528286
  +0.0056684376  -0.0036778229
  +0.9249157001  -0.0344137131
  +0.0163217006  -0.0796141487
  +0.1816772804  -0.3219286127
  -0.0048703258  +0.0014351994
  +0.0000000000  +0.0000000000
  +0.0000000000  +0.0000000000
  +0.0055513781  +0.0586590749
  -0.0505329242  +0.0008722614
  -0.0123864519  -0.0055967166
  +0.1249522809  -0.1557266500
  +0.0026795459  -0.0050947350
  +0.9766740106  +0.0002984724

   0.5000000000  +0.0000000000  +0.0000000000
   0.0000000000  +0.0000000000
  +0.0000000000  +0.0000000000
  -0.5235380299  +0.8520022324
  -0.0000575746  +0.0002916326
  +0.0001283093  -0.0001358568
  +0.0000000173  -0.0000000376
  -0.0000435542  -0.0000441081
  -0.0000028525  -0.0000071677
  +0.0000000000  +0.0000000000
  +0.0000000000  +0.0000000000
  +0.0000480477  +0.0002193736
  -0.4663956396  -0.7249254687
  +0.0000001242  -0.0000109482
  +0.0000909006  -0.0002633025
  -0.5034341466  -0.0126386675
  -0.0527378831  -0.0238973607
  +0.0000000000  +0.0000000000
  +0.0000000000  +0.0000000000
  +0.0000000001  +0.0000000468
  +0.0000276511  -0.0001724962
  +0.0002948917  +0.0000599917
  -0.8738597714  +0.4861778637
  -0.0001826841  -0.0001721658
  -0.0000107596  -0.0000244184
  +0.0000000000  +0.0000000000
  +0.0000000000  +0.0000000000
  +0.0000031912  +0.0000037652
  -0.0118882780  -0.0066729649
  +0.0000422603  +0.0000893852
  +0.0000009074  +0.0000055759
  +0.1227943383  -0.0612232509
  -0.9885354661  +0.0615225715

   0.5000000000  +0.2500000000  +0.0000000000
   0.0000000000  +0.0000000000
  +0.0000000000  +0.0000000000
  +0.6345599851  -0.1124691860
  +0.4675020882  -0.5826064713
  -0.0101055353  -0.0018397754
  -0.1079739245  +0.1177198011
  -0.0005101528  +0.0042917551
  +0.0324848070  -0.0001897068
  +0.0000000000  +0.0000000000
  +0.0000000000  +0.0000000000
  +0.3915974030  -0.0699095279
  -0.3183963475  +0.3978412037
  -0.0704690901  -0.0025663502
  -0.5082896294  +0.5549149497
  -0.0016199078  -0.0051541245
  +0.1040161593  -0.0005443648
  +0.0000000000  +0.0000000000
  +0.0000000000  +0.0000000000
  +0.0052401347  +0.0001720229
  -0.0055057196  +0.0039818920
  +0.9273925412  +0.1183334592
  -0.0554484043  +0.0550483562
  +0.1718521491  -0.3003388237
  +0.0026989523  +0.0042318243
  +0.0000000000  +0.0000000000
  +0.0000000000  +0.0000000000
  +0.0584853244  -0.0100541904
  -0.0320267936  +0.0394880701
  +0.0127263876  +0.0013701657
  +0.1356633353  -0.1463273446
  +0.0101975991  +0.0047169044
  +0.9766199701  +0.0006928867

   0.5000000000  +0.5000000000  +0.0000000000
   0.0000000000  +0.0000000000
  +0.0000000000  +0.0000000000
  -0.8538391449  +0.5205329110
  +0.0019079392  -0.0006172047
  -0.0000199751  +0.0000990217
  +0.0000000458  -0.0000001490
  +0.0002775851  -0.0003054784
  +0.0000141776  +0.0000358784
  +0.0000000000  +0.0000000000
  +0.0000000000  +0.0000000000
  -0.0014047584  +0.0005480009
  -0.8500137661  +0.1174794029
  +0.0000322089  -0.0000179580
  +0.0001309369  -0.0001819694
  +0.4048841233  -0.3127229498
  +0.0087966679  +0.0432282792
  +0.0000000000  +0.0000000000
  +0.0000000000  +0.0000000000
  -0.0000001701  -0.0000001631
  -0.0000654955  -0.0001250381
  -0.0011671747  -0.0004735808
  -0.9614239831  -0.2750677696
  +0.0001687251  +0.0001076772
  -0.0000136483  +0.0000082653
  +0.0000000000  +0.0000000000
  +0.0000000000  +0.0000000000
  -0.0000015443  +0.0000252538
  -0.0030511691  +0.0100239028
  +0.0000114475  -0.0000841408
  +0.0000016190  +0.0000030211
  +0.0230403028  +0.1007363686
  +0.9679295943  +0.2287440335

   0.5000000000  +0.7500000000  +0.0000000000
   0.0000000000  +0.0000000000
  +0.0000000000  +0.0000000000
  -0.6226020913  -0.1667150218
  -0.7437811588  +0.0684163910
  +0.0050080050  -0.0088499217
  +0.0738553583  +0.1415956797
  -0.0021062252  +0.0036578999
  -0.0325011017  +0.0001817555
  +0.0000000000  +0.0000000000
  +0.0000000000  +0.0000000000
  -0.3842257997  -0.1025835605
  +0.5073582338  -0.0470667128
  +0.0254176171  -0.0650929838
  +0.3481808824  +0.6672642598
  +0.0007356569  -0.0054647535
  -0.1040874837  +0.0004636551
  +0.0000000000  +0.0000000000
  +0.0000000000  +0.0000000000
  -0.0046121398  -0.0024903620
  +0.0066393312  +0.0013540770
  -0.4381978648  +0.8259692485
  +0.0307067955  +0.0709022004
  +0.2820081920  -0.2003989583
  -0.0025727871  -0.0043626223
  +0.0000000000  +0.0000000000
  +0.0000000000  +0.0000000000
  +0.0572864082  +0.0156320432
  -0.0507023854  +0.0044184428
  +0.0054147783  -0.0114282475
  +0.0914627837  +0.1774845049
  -0.0075945822  -0.0085324728
  +0.9765893646  +0.0005189685

   0.7500000000  +0.0000000000  +0.0000000000
   0.0000000000  +0.0000000000
  -0.0122264608  +0.0020546815
  +0.6386588892  -0.7692301918
  +0.0027611448  +0.0030904287
  -0.0038116763  +0.0132312224
  +0.0045664023  +0.0001094577
  +0.0014433198  -0.0004637265
  -0.0022074367  +0.0033501224
  +0.0000000000  +0.0000000000
  -0.7106165117  +0.1876852204
  -0.0079215405  +0.0117264723
  +0.3270785116  +0.2700179400
  +0.0000497972  -0.0005201645
  +0.3780281343  -0.0286631050
  +0.0619145208  -0.0276753004
  -0.1751650233  +0.3173308955
  +0.0000000000  +0.0000000000
  +0.2267305529  +0.0907412384
  +0.0018408373  -0.0004564968
  +0.2024411742  +0.8153275802
  +0.0006428302  -0.0010391031
  -0.3289076333  -0.2069007427
  -0.2848169902  -0.0416194653
  +0.0263938871  -0.0086613063
  +0.0000000000  +0.0000000000
  -0.1758923502  +0.0154620545
  -0.0006903918  +0.0006880977
  -0.0485272418  -0.0553110788
  -0.0000175693  +0.0012959671
  -0.7107058445  -0.0658312506
  +0.5357598890  -0.1746485123
  -0.2340160179  +0.2857711642

   0.7500000000  +0.2500000000  +0.0000000000
   0.0000000000  +0.0000000000
  +0.0000000000  +0.0000000000
  -0.1425772116  -0.6302646794
  -0.3571273733  +0.6540371554
  +0.0093639175  +0.0046523650
  -0.0632158039  +0.1481338216
  -0.0035654388  +0.0031083538
  -0.0325884410  -0.0001898677
  +0.0000000000  +0.0000000000
  +0.0000000000  +0.0000000000
  -0.0886847555  -0.3885148485
  +0.2450363831  -0.4508198002
  +0.0638721193  +0.0349814538
  -0.2927733027  +0.6900325616
  +0.0033346911  +0.0000164994
  -0.1036053610  -0.0004706117
  +0.0000000000  +0.0000000000
  +0.0000000000  +0.0000000000
  -0.0034439087  -0.0037253244
  -0.0002211471  -0.0067391193
  -0.9248277883  -0.0356568365
  +0.0035278792  +0.0806396020
  +0.1410686624  -0.3419210741
  -0.0048844081  +0.0012295145
  +0.0000000000  +0.0000000000
  +0.0000000000  +0.0000000000
  +0.0133351484  +0.0573564446
  -0.0239302705  +0.0444583086
  +0.0120378970  +0.0060713719
  -0.0772399976  +0.1839969481
  +0.0017483138  -0.0054456398
  +0.9767024668  +0.0003551064

   0.7500000000  +0.5000000000  +0.0000000000
   0.0000000000  +0.0000000000
  +0.0000000000  +0.0000000000
  +0.5902621077  -0.2655162441
  +0.7416576610  -0.0679949056
  +0.0024896844  -0.0083275345
  -0.1198106520  -0.1040074713
  +0.0036154958  +0.0024787765
  +0.0338447338  +0.0000106832
  +0.0000000000  +0.0000000000
  +0.0000000000  +0.0000000000
  -0.3608425453  +0.1610422194
  +0.5076241901  -0.0450175745
  -0.0267471281  +0.0591222244
  +0.5679345916  +0.4955146981
  +0.0052208608  +0.0031016588
  -0.1087056537  -0.0000350459
  +0.0000000000  +0.0000000000
  +0.0000000000  +0.0000000000
  +0.0049858456  -0.0007193559
  -0.0066902237  -0.0009203720
  -0.6574175515  +0.6653451966
  -0.0316581446  -0.0629202459
  -0.2804943194  -0.2034105184
  +0.0036634860  -0.0044080824
  +0.0000000000  +0.0000000000
  +0.0000000000  +0.0000000000
  +0.0564076437  -0.0253392566
  -0.0533338915  +0.0048629269
  -0.0043567062  +0.0110093272
  +0.1571455429  +0.1364962534
  -0.0070743145  +0.0139477962
  +0.9744720833  -0.0011766876

   0.7500000000  +0.7500000000  +0.0000000000
   0.0000000000  +0.0000000000
  -0.0116625935  +0.0089605420
  -0.3811580070  +0.9242525282
  -0.0017996072  +0.0032506712
  -0.0129294918  +0.0046385365
  -0.0040625777  -0.0027407041
  -0.0002369255  +0.0013313629
  +0.0001579615  +0.0055827894
  +0.0000000000  +0.0000000000
  +0.4498560689  +0.6363347853
  -0.0150224981  -0.0072082117
  +0.2385981166  +0.2338621011
  -0.0000878028  -0.0004931581
  -0.2138553601  +0.2789893945
  +0.0622035631  +0.0303054773
  +0.3903846461  -0.0072149514
  +0.0000000000  +0.0000000000
  +0.1164737612  +0.1503400728
  -0.0018725093  -0.0001068903
  -0.6462547110  -0.5799997948
  +0.0007206230  +0.0013175520
  -0.1828662672  +0.2604380326
  +0.3050224617  +0.1229917424
  +0.0186344465  -0.0002916664
  +0.0000000000  +0.0000000000
  -0.1000561851  -0.1356150376
  +0.0008845596  +0.0003192612
  +0.0566883900  +0.0527016378
  +0.0006891177  -0.0001444373
  -0.4704406713  +0.6407798140
  -0.4100498208  -0.1769557241
  -0.3661579995  +0.0128780977

   0.0000000000  +0.0000000000  +0.2500000000
   0.0000000000  +0.0000000000
  +0.0007220347  -0.0028973335
  +0.9995494535  -0.0257610613
  +0.0023140351  +0.0043340392
  +0.0024890818  -0.0137960451
  +0.0002174785  +0.0007066571
  -0.0017655670  +0.0001629911
  +0.0017384765  -0.0009819083
  +0.0000000000  +0.0000000000
  -0.7069962595  +0.3192299410
  +0.0003812854  +0.0025391422
  +0.1784035021  +0.2927124618
  -0.0001569224  +0.0007550133
  +0.3405586458  -0.0874206577
  -0.0684383536  +0.0081032090
  -0.3902705849  +0.0070561560
  +0.0000000000  +0.0000000000
  -0.1732013829  +0.0916538466
  +0.0040935466  +0.0001537929
  -0.4957142584  -0.7091306844
  -0.0005369668  +0.0009758183
  +0.3073523796  -0.0990015521
  -0.3219054474  +0.0680603123
  -0.0214722689  +0.0008393062
  +0.0000000000  +0.0000000000
  +0.1525936397  -0.0741702504
  -0.0005091168  -0.0001417240
  +0.0426873828  +0.0648201343
  -0.0015289473  +0.0046160263
  +0.7622896908  -0.2192116500
  +0.4426374859  -0.0776896864
  +0.3658160251  -0.0155515988

   0.0000000000  +0.2500000000  +0.2500000000
   0.0000000000  +0.0000000000
  -0.0038748466  -0.0015398837
  -0.5677241398  -0.8230745232
  -0.0013450972  -0.0036349939
  +0.0070596497  +0.0120643328
  +0.0002175489  +0.0006558348
  -0.0008528878  +0.0011369233
  -0.0024380704  +0.0011806330
  +0.0000000000  +0.0000000000
  +0.7085427645  -0.1764130166
  -0.0024409505  -0.0007199299
  -0.3345977045  -0.2743719795
  -0.0007310124  -0.0009780261
  -0.3236114656  -0.1990421453
  -0.0138991199  +0.0635697919
  +0.1848663176  -0.3112073398
  +0.0000000000  +0.0000000000
  -0.2380900956  -0.0753839594
  +0.0024635604  +0.0034556982
  -0.2742955592  -0.7895389722
  +0.0009286698  +0.0013346227
  +0.1778537738  +0.3516067814
  +0.1831625142  -0.2219752523
  -0.0279866200  +0.0116535060
  +0.0000000000  +0.0000000000
  -0.1758707178  +0.0279479279
  +0.0006096435  +0.0003024250
  -0.0530048296  -0.0504544466
  -0.0042342525  -0.0018148854
  -0.5713410965  -0.4215401466
  +0.1294996668  -0.5510166034
  -0.2205049011  +0.2996213259

   0.0000000000  +0.5000000000  +0.2500000000
   0.0000000000  +0.0000000000
  +0.0000000000  +0.0000000000
  +0.6302838112  -0.0943901714
  +0.6984817116  +0.2801979919
  +0.0053736465  -0.0074432998
  -0.1269227729  -0.1006429073
  -0.0053940510  -0.0019350032
  -0.0330103525  -0.0000978458
  +0.0000000000  +0.0000000000
  +0.0000000000  +0.0000000000
  +0.4010444581  -0.0601589915
  -0.4732400591  -0.1897197678
  +0.0453057473  -0.0534107062
  -0.5864324442  -0.4644905429
  +0.0039891677  +0.0024000577
  -0.1049426654  -0.0002598234
  +0.0000000000  +0.0000000000
  +0.0000000000  +0.0000000000
  -0.0048422902  +0.0016060194
  +0.0068980943  +0.0012324477
  +0.4994660086  -0.7834810371
  +0.0653799845  +0.0400785609
  -0.3601700445  -0.0314815623
  +0.0044694492  -0.0012969135
  +0.0000000000  +0.0000000000
  +0.0000000000  +0.0000000000
  +0.0591800639  -0.0090289731
  -0.0463448659  -0.0184426690
  -0.0080154992  +0.0099860658
  +0.1587622001  +0.1251416006
  -0.0037559157  -0.0027186059
  -0.9761541350  -0.0000022276

   0.0000000000  +0.7500000000  +0.2500000000
   0.0000000000  +0.0000000000
  +0.0000000000  +0.0000000000
  -0.5864713546  +0.2537932803
  +0.3845346043  +0.6458168866
  +0.0050508381  -0.0082992243
  -0.0244221673  -0.1574751595
  +0.0036282948  +0.0003809990
  -0.0345160088  +0.0002957069
  +0.0000000000  +0.0000000000
  +0.0000000000  +0.0000000000
  -0.3684457093  +0.1603374577
  -0.2601988675  -0.4350062148
  +0.0396527143  -0.0542373269
  -0.1168883600  -0.7423729928
  -0.0053540772  -0.0025323767
  -0.1107898674  +0.0013239976
  +0.0000000000  +0.0000000000
  +0.0000000000  +0.0000000000
  -0.0043862590  +0.0029183132
  -0.0044475811  -0.0048611089
  -0.4975187544  +0.7947058452
  -0.0141914461  -0.0725609018
  -0.3369785553  +0.0425473041
  -0.0022388516  +0.0031980571
  +0.0000000000  +0.0000000000
  +0.0000000000  +0.0000000000
  +0.0582679076  -0.0245115247
  +0.0268064935  +0.0460809551
  +0.0070905361  -0.0105868267
  -0.0303642332  -0.2099565579
  +0.0015122649  -0.0086305485
  +0.9736110780  +0.0007677849

   0.2500000000  +0.0000000000  +0.2500000000
   0.0000000000  +0.0000000000
  +0.0000000000  +0.0000000000
  -0.4877746915  -0.4253883606
  +0.7315937491  +0.1388691232
  -0.0078473641  -0.0059764727
  -0.1577109790  +0.0223585583
  -0.0032756124  +0.0029547863
  +0.0334230376  +0.0001695921
  +0.0000000000  +0.0000000000
  +0.0000000000  +0.0000000000
  -0.2974182221  -0.2612523982
  -0.5014013144  -0.0970029134
  -0.0606655474  -0.0348799768
  -0.7453522912  +0.1026242619
  +0.0008917909  -0.0061794374
  +0.1070424944  +0.0009835617
  +0.0000000000  +0.0000000000
  +0.0000000000  +0.0000000000
  -0.0010485175  -0.0051168884
  -0.0044220755  -0.0053197524
  +0.4835746823  +0.7970318390
  -0.0731149179  -0.0241375820
  +0.3524662682  -0.0253575175
  +0.0024414535  +0.0032846724
  +0.0000000000  +0.0000000000
  +0.0000000000  +0.0000000000
  -0.0461421877  -0.0397114183
  -0.0517597212  -0.0094782321
  +0.0108107183  +0.0072091728
  +0.2030424027  -0.0301460388
  +0.0010014183  +0.0046353129
  +0.9752935919  -0.0010353705

   0.2500000000  +0.2500000000  +0.2500000000
   0.0000000000  +0.0000000000
  -0.1205046489  -0.0388348675
  -0.8357256148  +0.2022454282
  -0.0073017708  -0.0005316815
  -0.0007296891  +0.0015767098
  -0.2078216066  +0.4418430863
  +0.0356955238  +0.0698815527
  +0.0001065603  -0.0007765037
  +0.0000000000  +0.0000000000
  +0.1929230796  -0.8311508523
  +0.0396439827  +0.1191883070
  +0.0001713471  +0.0035398627
  +0.0024666395  +0.0003811544
  +0.0108074229  +0.0795676352
  -0.4327098509  -0.2499428752
  +0.0020587126  -0.0033697730
  +0.0000000000  +0.0000000000
  +0.0016897169  +0.0011122276
  -0.0025017563  +0.0001206461
  +0.1171593768  +0.0637306312
  +0.4306790521  -0.8925848097
  -0.0010812673  +0.0012100427
  +0.0013873713  -0.0009437978
  -0.0020400048  +0.0001505920
  +0.0000000000  +0.0000000000
  +0.0000848427  +0.0001575410
  -0.0006121223  -0.0001800858
  +0.0790014333  +0.0518900179
  -0.0075074727  +0.0127382222
  -0.0027074808  +0.0004280396
  -0.0001882604  -0.0075768512
  -0.9952879519  -0.0135672735

   0.2500000000  +0.5000000000  +0.2500000000
   0.0000000000  +0.0000000000
  +0.0000000000  +0.0000000000
  -0.2410344794  +0.6013559647
  +0.4348419553  +0.6038373585
  +0.0044689381  -0.0080789707
  -0.1588198685  -0.0113039755
  +0.0022744744  +0.0045263910
  +0.0332242537  -0.0001333428
  +0.0000000000  +0.0000000000
  +0.0000000000  +0.0000000000
  -0.1461127677  +0.3671687701
  -0.2994994385  -0.4136840645
  +0.0199922107  -0.0650125844
  -0.7511795302  -0.0521749291
  -0.0033125590  -0.0050574983
  +0.1065262381  -0.0003307304
  +0.0000000000  +0.0000000000
  +0.0000000000  +0.0000000000
  -0.0010442260  +0.0050136154
  -0.0046115939  -0.0052967766
  -0.0110848699  +0.9325515930
  -0.0716107049  +0.0194470146
  -0.1122953557  -0.3346470520
  +0.0041568808  +0.0051620971
  +0.0000000000  +0.0000000000
  +0.0000000000  +0.0000000000
  -0.0226653845  +0.0561710892
  -0.0305688251  -0.0426595082
  -0.0044992855  +0.0115093816
  +0.2036484495  +0.0150477394
  +0.0169805220  -0.0020435581
  +0.9754137016  +0.0007510286

   0.2500000000  +0.7500000000  +0.2500000000
   0.0000000000  +0.0000000000
  +0.0000000000  +0.0000000000
  +0.0000000000  +0.0000000000
  -0.2380580161  -0.9712509169
  -0.0000004385  -0.0000004074
  +0.0000002933  -0.0000006384
  +0.0000007369  +0.0000009203
  -0.0001934380  +0.0000019484
  +0.0000000000  +0.0000000000
  +0.0000000000  +0.0000000000
  +0.0000000000  +0.0000000000
  +0.0000000009  -0.0000000007
  -0.3135340540  +0.8579590449
  +0.2872815140  +0.0093114982
  -0.1374488358  +0.2531661886
  -0.0000081593  -0.0000188594
  +0.0000000000  +0.0000000000
  +0.0000000000  +0.0000000000
  +0.0000000000  +0.0000000000
  +0.0000000003  +0.0000000006
  -0.0769425129  -0.0502990162
  +0.2155753955  -0.8070414238
  -0.4053202930  -0.3598287202
  +0.0000110513  -0.0000020076
  +0.0000000000  +0.0000000000
  +0.0000000000  +0.0000000000
  +0.0000000000  +0.0000000000
  -0.0000003191  -0.0000001250
  +0.3878330414  -0.0820510379
  +0.2354570607  +0.4051495377
  -0.7879593883  +0.0484908759
  -0.0033877832  +0.0049136641

   0.5000000000  +0.0000000000  +0.2500000000
   0.0000000000  +0.0000000000
  +0.0000000000  +0.0000000000
  -0.3830507825  +0.5174358866
  -0.5834923400  -0.4667347385
  -0.0060025587  -0.0075541169
  -0.1319253642  -0.0932551656
  +0.0010346770  +0.0053613338
  -0.0316833631  -0.0000361676
  +0.0000000000  +0.0000000000
  +0.0000000000  +0.0000000000
  -0.2378253884  +0.3218099036
  +0.4001437834  +0.3195531472
  -0.0398688752  -0.0592963195
  -0.6128736053  -0.4321611809
  -0.0000791542  -0.0040389941
  -0.1007420763  +0.0000250818
  +0.0000000000  +0.0000000000
  +0.0000000000  +0.0000000000
  +0.0028409561  -0.0042817150
  -0.0058658338  -0.0038877444
  -0.5309416736  -0.7615673194
  +0.0640907490  +0.0451051688
  +0.1282049990  +0.3397525528
  +0.0052455022  -0.0015152746
  +0.0000000000  +0.0000000000
  +0.0000000000  +0.0000000000
  -0.0341479205  +0.0461552481
  +0.0381561016  +0.0305024495
  +0.0072713655  +0.0102974711
  +0.1585780928  +0.1119814397
  -0.0015045317  +0.0072048529
  -0.9779658783  -0.0003569680

   0.5000000000  +0.2500000000  +0.2500000000
   0.0000000000  +0.0000000000
  +0.0000000000  +0.0000000000
  -0.6827846009  -0.5040249252
  -0.0010530928  -0.0024023089
  -0.0001978070  +0.0002858472
  -0.0039158478  -0.0102418055
  -0.1578608940  +0.5046946492
  -0.0002866495  -0.0000353141
  +0.0000000000  +0.0000000000
  +0.0000000000  +0.0000000000
  +0.0017522268  -0.0004279614
  -0.8693878252  -0.3168298681
  +0.0025312608  -0.1433112443
  +0.0165116877  +0.0271267661
  -0.0006699643  -0.0010266424
  -0.3495848656  -0.0040363663
  +0.0000000000  +0.0000000000
  +0.0000000000  +0.0000000000
  -0.0002592655  +0.0001084703
  +0.1047925825  +0.0402608524
  +0.0345560142  -0.9869857596
  -0.0166238721  -0.0284124590
  +0.0002145331  +0.0001616650
  +0.1047360590  +0.0030259623
  +0.0000000000  +0.0000000000
  +0.0000000000  +0.0000000000
  +0.0052768191  +0.0009175514
  -0.0266389192  -0.0019630098
  +0.0068767234  +0.0260672247
  -0.7317384811  -0.6796892562
  -0.0019045615  -0.0121044166
  -0.0299412372  +0.0081072007

   0.5000000000  +0.5000000000  +0.2500000000
   0.0000000000  +0.0000000000
  +0.0000000000  +0.0000000000
  -0.0545100568  +0.8549965314
  -0.0092075727  +0.0075816762
  +0.0027601221  -0.0023259385
  +0.0021107075  +0.0089820612
  -0.0359434151  -0.5142733133
  +0.0003964974  -0.0001898792
  +0.0000000000  +0.0000000000
  +0.0000000000  +0.0000000000
  -0.0021007074  -0.0084022878
  -0.4983879229  +0.7801112386
  -0.0753525281  +0.1140784907
  -0.0122459037  +0.0125307378
  +0.0019919430  +0.0060573468
  +0.3520210020  +0.0016093977
  +0.0000000000  +0.0000000000
  +0.0000000000  +0.0000000000
  +0.0005907145  +0.0028905093
  +0.0587732976  -0.0902064094
  -0.5524777224  +0.8202838294
  +0.0120708951  -0.0118150513
  -0.0013777431  -0.0044514084
  -0.0999687962  -0.0013525543
  +0.0000000000  +0.0000000000
  +0.0000000000  +0.0000000000
  +0.0031188938  -0.0030890100
  +0.0037064646  -0.0140916169
  -0.0034929665  +0.0133487310
  -0.4429996229  +0.8960663265
  -0.0062191263  +0.0084330917
  -0.0160935861  +0.0050699120

   0.5000000000  +0.7500000000  +0.2500000000
   0.0000000000  +0.0000000000
  +0.0000000000  +0.0000000000
  +0.0057660012  +0.6462451391
  +0.5568780495  +0.4957543412
  +0.0059583821  +0.0072513550
  -0.0992121896  -0.1241694756
  +0.0010793157  -0.0037240129
  +0.0329269248  +0.0001652807
  +0.0000000000  +0.0000000000
  +0.0000000000  +0.0000000000
  +0.0029555124  +0.3957165159
  -0.3798370407  -0.3391551886
  +0.0381741814  +0.0548195262
  -0.4699104034  -0.5895931473
  -0.0030183332  +0.0048069737
  +0.1056714557  +0.0005436058
  +0.0000000000  +0.0000000000
  +0.0000000000  +0.0000000000
  +0.0011501916  +0.0050343035
  -0.0058979780  -0.0031423050
  -0.6304345367  -0.6931688317
  -0.0510854808  -0.0523535106
  -0.0050026090  +0.3414788281
  +0.0022350443  -0.0030838834
  +0.0000000000  +0.0000000000
  +0.0000000000  +0.0000000000
  +0.0008360114  +0.0602493691
  -0.0390253241  -0.0343944489
  -0.0073575253  -0.0094903616
  +0.1271666583  +0.1575496786
  +0.0077150540  +0.0021673477
  +0.9759411005  -0.0008057064

   0.7500000000  +0.0000000000  +0.2500000000
   0.0000000000  +0.0000000000
  -0.0085471149  +0.0073130290
  -0.0269333975  +0.9994536722
  +0.0015023600  -0.0034995977
  -0.0079374423  +0.0114115613
  +0.0038612185  -0.0012556537
  +0.0011244867  +0.0007779668
  +0.0037832992  -0.0001260944
  +0.0000000000  +0.0000000000
  -0.4898468552  +0.5672385820
  -0.0017881326  -0.0128074160
  +0.0492633604  -0.3943464061
  +0.0001123501  -0.0004372217
  +0.3281465784  -0.1724313017
  +0.0661309230  +0.0180925368
  +0.3674244368  -0.0554343346
  +0.0000000000  +0.0000000000
  +0.2153869273  -0.0741104404
  -0.0008574824  +0.0011258326
  +0.5159766363  -0.6743653564
  +0.0010673972  -0.0000777807
  -0.3688996181  -0.0159091881
  -0.1881537091  -0.2339257749
  -0.0248365379  -0.0056984472
  +0.0000000000  +0.0000000000
  -0.1500889908  +0.0897342916
  +0.0001931305  -0.0007910762
  -0.0338679191  +0.0683975472
  -0.0008050598  +0.0010774013
  -0.7297449174  +0.1187678119
  +0.4128502606  +0.3320333795
  +0.3647135643  +0.0570297728

   0.7500000000  +0.2500000000  +0.2500000000
   0.0000000000  +0.0000000000
  +0.1093929657  -0.3201004266
  +0.4249343150  -0.6742120642
  +0.0036905479  +0.0048250456
  +0.0002543785  -0.0001799095
  +0.2178685014  -0.2039849505
  -0.0687362064  -0.3957266350
  +0.0001933544  +0.0000328609
  +0.0000000000  +0.0000000000
  +0.5179345650  -0.5988912885
  -0.2726293738  +0.1965550286
  -0.0010643517  +0.0022776113
  -0.0005455921  -0.0009517762
  +0.4039330222  +0.0663444545
  -0.2058489843  +0.2239488775
  +0.0037814112  +0.0003951164
  +0.0000000000  +0.0000000000
  -0.0005562125  +0.0010715608
  +0.0000531659  +0.0003859082
  +0.0644979191  +0.1066521921
  -0.3732238355  -0.9193287744
  -0.0006998430  +0.0001311014
  +0.0004766020  -0.0000760365
  +0.0012458930  +0.0000063029
  +0.0000000000  +0.0000000000
  +0.0000003838  +0.0002184535
  -0.0002092022  +0.0001986774
  +0.0322808470  +0.0526860626
  +0.0034419130  +0.0083388856
  -0.0062516794  -0.0000675116
  +0.0027650891  -0.0031976312
  +0.9980197753  -0.0004247631

   0.7500000000  +0.5000000000  +0.2500000000
   0.0000000000  +0.0000000000
  +0.0000000000  +0.0000000000
  -0.8050745625  +0.2709329281
  +0.0609757630  +0.0293312615
  +0.0194861056  -0.0048595307
  -0.0003995236  +0.0015688586
  -0.4945409552  -0.1699748695
  -0.0017999332  +0.0007307364
  +0.0000000000  +0.0000000000
  +0.0000000000  +0.0000000000
  -0.0450236907  +0.0155811893
  -0.8221420654  -0.3872642645
  +0.2098585233  -0.0595651575
  -0.0277197971  +0.0114843038
  -0.0311045828  -0.0110239023
  +0.3490485057  -0.0206432207
  +0.0000000000  +0.0000000000
  +0.0000000000  +0.0000000000
  -0.0183552972  +0.0072365738
  -0.1552141286  -0.0680527255
  -0.9267409224  +0.2904969466
  -0.0467749002  +0.0210589247
  -0.0265202264  -0.0077341705
  +0.1551696629  -0.0133704503
  +0.0000000000  +0.0000000000
  +0.0000000000  +0.0000000000
  +0.0024105516  +0.0010465201
  +0.0175356354  +0.0243042599
  +0.0408677108  +0.0097000998
  -0.9916326015  -0.1134616907
  +0.0011166862  +0.0034340827
  -0.0300422359  -0.0143627730

   0.7500000000  +0.7500000000  +0.2500000000
   0.0000000000  +0.0000000000
  -0.5538333014  -0.3289562060
  -0.4237636039  -0.4011648792
  +0.0081326438  +0.0046733010
  +0.0002064910  -0.0014918050
  +0.1138958782  -0.4236701892
  +0.0398380967  +0.2244999745
  -0.0000553804  +0.0011716845
  +0.0000000000  +0.0000000000
  +0.4806871025  -0.3255544438
  -0.5967565916  +0.2337415462
  +0.0002427030  +0.0030625815
  +0.0021702087  +0.0005834377
  -0.1359423919  -0.1874697125
  -0.3899156165  -0.2156571205
  +0.0032736047  +0.0028390063
  +0.0000000000  +0.0000000000
  +0.0024647471  +0.0015745510
  +0.0006224080  -0.0006877158
  +0.1340890139  -0.0001882902
  +0.1510142504  -0.9793849047
  +0.0004560870  +0.0008103038
  +0.0003582418  -0.0019330514
  +0.0024138463  +0.0001863182
  +0.0000000000  +0.0000000000
  +0.0007914936  +0.0000778380
  +0.0005266166  -0.0000849389
  +0.1104641551  -0.0104115373
  -0.0010531121  +0.0174206774
  +0.0061441817  +0.0015652056
  +0.0063090308  -0.0016985420
  +0.9934507565  -0.0188803817

   0.0000000000  +0.0000000000  +0.5000000000
   0.0000000000  +0.0000000000
  +0.0000000000  +0.0000000000
  +0.9714200620  +0.2370912598
  +0.0099680216  -0.0050956936
  -0.0000174235  +0.0000347580
  -0.0000003047  -0.0000005095
  -0.0022843343  +0.0004494790
  +0.0002192325  -0.0000180468
  +0.0000000000  +0.0000000000
  +0.0000000000  +0.0000000000
  -0.0081786989  -0.0020888466
  +0.7702399940  -0.3834407519
  -0.0000037293  +0.0000056898
  +0.0000954350  +0.0001777994
  +0.4990785660  -0.0926823453
  -0.0441905785  +0.0031633679
  +0.0000000000  +0.0000000000
  +0.0000000000  +0.0000000000
  -0.0000013561  +0.0000001223
  +0.0000893719  -0.0000898118
  +0.0018838063  -0.0055544976
  -0.7301780085  -0.6832317509
  +0.0001584716  -0.0000885680
  -0.0000135545  +0.0000055968
  +0.0000000000  +0.0000000000
  +0.0000000000  +0.0000000000
  -0.0001298951  +0.0000578341
  +0.0044683540  -0.0094927212
  -0.0000381689  +0.0000001197
  -0.0000026936  -0.0000015063
  -0.0688201792  +0.0787465939
  -0.7341019680  +0.6708553927

   0.0000000000  +0.2500000000  +0.5000000000
   0.0000000000  +0.0000000000
  +0.0000000000  +0.0000000000
  +0.6061465267  -0.1994250886
  -0.4750764523  -0.5832839167
  -0.0108758246  -0.0002684485
  -0.1497466107  -0.0564893744
  +0.0021782555  -0.0031123632
  +0.0339164388  +0.0002243585
  +0.0000000000  +0.0000000000
  +0.0000000000  +0.0000000000
  +0.3831883496  -0.1251511577
  +0.3196422169  +0.3941506616
  -0.0710118537  +0.0075185024
  -0.7013437349  -0.2667699822
  -0.0005536966  +0.0054969322
  +0.1086175083  +0.0011092774
  +0.0000000000  +0.0000000000
  +0.0000000000  +0.0000000000
  +0.0053837195  -0.0000103482
  +0.0020197800  +0.0063359353
  +0.9325854014  +0.0730733946
  -0.0698193846  -0.0383223812
  -0.3080410128  +0.1536767209
  +0.0023708783  +0.0040948123
  +0.0000000000  +0.0000000000
  +0.0000000000  +0.0000000000
  +0.0587359435  -0.0198679651
  +0.0332024186  +0.0400828305
  +0.0136399935  -0.0006491390
  +0.1954339879  +0.0719018925
  -0.0063915178  -0.0077216244
  +0.9745740588  -0.0006717902

   0.0000000000  +0.5000000000  +0.5000000000
   0.0000000000  +0.0000000000
  +0.0000000000  +0.0000000000
  -0.9464507181  +0.3225815614
  -0.0113476154  +0.0060013076
  -0.0000276315  -0.0000570471
  +0.0000000356  +0.0000001175
  -0.0012025603  -0.0024147454
  +0.0003300070  +0.0000156308
  +0.0000000000  +0.0000000000
  +0.0000000000  +0.0000000000
  -0.0091901570  +0.0031548289
  +0.7625151111  -0.4054073330
  +0.0000290544  -0.0000090097
  -0.0000129472  -0.0000281107
  -0.2242771096  -0.4478839499
  +0.0566954589  +0.0025605440
  +0.0000000000  +0.0000000000
  +0.0000000000  +0.0000000000
  +0.0000004408  -0.0000000810
  -0.0000183947  +0.0000059240
  -0.0021309697  -0.0059275729
  -0.2429519832  -0.9700178635
  +0.0000077838  +0.0000269494
  -0.0000027302  -0.0000008150
  +0.0000000000  +0.0000000000
  +0.0000000000  +0.0000000000
  -0.0002073114  -0.0000249207
  +0.0133297221  -0.0005112139
  +0.0000693862  -0.0000434462
  -0.0000006509  +0.0000009436
  +0.0018821866  +0.1352406546
  +0.8715860659  +0.4710267076

   0.0000000000  +0.7500000000  +0.5000000000
   0.0000000000  +0.0000000000
  +0.0000000000  +0.0000000000
  -0.5582889626  -0.3091674559
  -0.5843189310  -0.4737174278
  -0.0093595079  -0.0054119528
  -0.1083107017  +0.1178060590
  -0.0020360543  -0.0032003558
  +0.0339312152  +0.0001533682
  +0.0000000000  +0.0000000000
  +0.0000000000  +0.0000000000
  +0.3521151459  +0.1961074971
  -0.3934425516  -0.3205202976
  +0.0656753931  +0.0273391801
  +0.5095396483  -0.5509019165
  -0.0049441635  -0.0026289069
  -0.1086739444  -0.0009088871
  +0.0000000000  +0.0000000000
  +0.0000000000  +0.0000000000
  -0.0036897550  -0.0039114709
  +0.0033221126  +0.0057592605
  +0.7883477340  +0.5036740336
  -0.0608417923  +0.0508377153
  +0.0297380545  +0.3428616077
  +0.0024457740  +0.0040726010
  +0.0000000000  +0.0000000000
  +0.0000000000  +0.0000000000
  -0.0544586414  -0.0297039228
  +0.0406665871  +0.0325433502
  +0.0122101897  +0.0059744024
  +0.1400418671  -0.1542509562
  -0.0095927447  +0.0028952440
  +0.9745502098  -0.0008446603

   0.2500000000  +0.0000000000  +0.5000000000
   0.0000000000  +0.0000000000
  +0.0000000000  +0.0000000000
  +0.3864549372  +0.5194459728
  -0.7103445447  +0.2231845283
  -0.0090659898  -0.0031996191
  +0.1235618302  -0.0995744212
  -0.0031878411  +0.0018637781
  -0.0337500961  +0.0001761357
  +0.0000000000  +0.0000000000
  +0.0000000000  +0.0000000000
  +0.2367643300  +0.3163220146
  +0.4860000450  -0.1542324502
  -0.0625130363  -0.0258151294
  +0.5851746478  -0.4744750809
  +0.0058407897  +0.0006638300
  -0.1083223391  +0.0008868688
  +0.0000000000  +0.0000000000
  +0.0000000000  +0.0000000000
  +0.0049713994  +0.0016227482
  +0.0040547697  -0.0053431361
  +0.9290538051  -0.1044902202
  +0.0300810198  -0.0676522550
  +0.1888270037  -0.2910676080
  -0.0026039427  +0.0020042879
  +0.0000000000  +0.0000000000
  +0.0000000000  +0.0000000000
  -0.0364850954  -0.0496648533
  -0.0510293208  +0.0156980804
  -0.0117632549  -0.0042525686
  +0.1623642574  -0.1291824629
  +0.0009714542  +0.0008015006
  +0.9747527271  +0.0007965619

   0.2500000000  +0.2500000000  +0.5000000000
   0.0000000000  +0.0000000000
  +0.0000000000  +0.0000000000
  -0.6103002473  -0.5956735452
  -0.0659006268  +0.0114540811
  -0.0184485649  +0.0078412827
  -0.0001120405  +0.0018834221
  -0.5175016931  +0.0041560808
  +0.0013571903  -0.0001866064
  +0.0000000000  +0.0000000000
  +0.0000000000  +0.0000000000
  -0.0341475394  -0.0324539772
  +0.8948301532  -0.1678692616
  -0.1911179334  +0.0855308739
  +0.0113434839  +0.0188229970
  -0.0327790159  +0.0004572288
  -0.3513143113  -0.0076550591
  +0.0000000000  +0.0000000000
  +0.0000000000  +0.0000000000
  -0.0138667477  -0.0133392592
  +0.1608077701  -0.0287295530
  +0.8923628224  -0.3901464223
  +0.0178366717  +0.0304513602
  -0.0274110430  +0.0003390420
  -0.1496725671  -0.0045633178
  +0.0000000000  +0.0000000000
  +0.0000000000  +0.0000000000
  -0.0021725276  -0.0006753265
  +0.0195141602  -0.0086627978
  +0.0228108630  -0.0176360250
  -0.6997570797  -0.7130719920
  -0.0029081902  +0.0019791092
  -0.0232193110  +0.0049462606

   0.2500000000  +0.5000000000  +0.5000000000
   0.0000000000  +0.0000000000
  +0.0000000000  +0.0000000000
  -0.8034415785  +0.2590391901
  -0.0611705643  -0.0545229435
  +0.0195620088  -0.0133324225
  +0.0000862374  -0.0004135120
  +0.1085735066  +0.5179802149
  +0.0035426041  +0.0009354667
  +0.0000000000  +0.0000000000
  +0.0000000000  +0.0000000000
  +0.0559296991  -0.0170337264
  -0.6709290890  -0.6176160763
  -0.1701526908  +0.1056209282
  +0.0006592815  +0.0317575580
  -0.0086488400  -0.0403973688
  +0.3493714875  +0.0101182439
  +0.0000000000  +0.0000000000
  +0.0000000000  +0.0000000000
  +0.0219796960  -0.0058784646
  -0.1119974474  -0.1069322879
  +0.8382111958  -0.4990861626
  +0.0001080366  +0.0484403578
  -0.0051808247  -0.0318154609
  +0.1427894582  +0.0067092359
  +0.0000000000  +0.0000000000
  +0.0000000000  +0.0000000000
  +0.0022422406  -0.0015106287
  -0.0270466011  -0.0133144900
  +0.0263910607  -0.0295749147
  -0.3020949182  -0.9513616257
  -0.0015759843  -0.0027078266
  +0.0328305991  -0.0086478676

   0.2500000000  +0.7500000000  +0.5000000000
   0.0000000000  +0.0000000000
  +0.0000000000  +0.0000000000
  -0.4227334649  +0.4899888114
  -0.5056173163  +0.5463178219
  +0.0014337426  -0.0106475692
  +0.0406764815  -0.1557361065
  +0.0042956473  +0.0020876624
  -0.0323849616  +0.0001236246
  +0.0000000000  +0.0000000000
  +0.0000000000  +0.0000000000
  +0.2601078406  -0.3008381093
  -0.3491323086  +0.3764108210
  -0.0164843383  +0.0716547385
  -0.1899036380  +0.7253790458
  +0.0021897600  +0.0009322173
  +0.1030133428  -0.0004104870
  +0.0000000000  +0.0000000000
  +0.0000000000  +0.0000000000
  -0.0045736663  +0.0022636590
  +0.0059626412  -0.0031483564
  -0.5534876076  +0.7416397838
  +0.0516199913  -0.0632135158
  -0.3092179929  -0.2030731025
  -0.0058732740  +0.0009338200
  +0.0000000000  +0.0000000000
  +0.0000000000  +0.0000000000
  +0.0384465613  -0.0441395252
  -0.0343718487  +0.0367877982
  +0.0028646979  -0.0132567089
  +0.0509674123  -0.1917224923
  -0.0035948615  -0.0093057727
  +0.9769340405  -0.0001421020

   0.5000000000  +0.0000000000  +0.5000000000
   0.0000000000  +0.0000000000
  +0.0000000000  +0.0000000000
  -0.8433855469  +0.5373066623
  +0.0010653744  +0.0010558930
  -0.0001315627  +0.0000654918
  +0.0000000823  -0.0000000636
  +0.0000127643  -0.0003113067
  -0.0000275792  -0.0000240672
  +0.0000000000  +0.0000000000
  +0.0000000000  +0.0000000000
  +0.0007683660  -0.0008308668
  +0.7454963689  +0.4305237141
  +0.0000049713  +0.0000106466
  -0.0000357910  +0.0000844216
  +0.1085318599  +0.4940540027
  +0.0491922068  +0.0243887458
  +0.0000000000  +0.0000000000
  +0.0000000000  +0.0000000000
  -0.0000000072  +0.0000000334
  -0.0000411568  +0.0000402649
  +0.0007065959  +0.0006906208
  +0.7816581070  +0.6237063551
  -0.0000822662  -0.0000046371
  -0.0000055420  +0.0000061775
  +0.0000000000  +0.0000000000
  +0.0000000000  +0.0000000000
  +0.0000021183  -0.0000234420
  +0.0128448171  -0.0017113242
  +0.0000247947  -0.0000661520
  -0.0000004623  -0.0000015841
  -0.0993140796  -0.0833787387
  +0.9725096300  -0.1929813346

   0.5000000000  +0.2500000000  +0.5000000000
   0.0000000000  +0.0000000000
  +0.0000000000  +0.0000000000
  -0.1271763794  +0.8439664593
  +0.0094814071  -0.0047356452
  -0.0030154518  -0.0006465812
  +0.0084950333  -0.0032158761
  -0.4620882689  +0.2404507782
  +0.0002832836  -0.0004658652
  +0.0000000000  +0.0000000000
  +0.0000000000  +0.0000000000
  +0.0043345512  -0.0062025706
  +0.9248230623  +0.0054049801
  +0.1233893434  +0.0739128837
  -0.0246499202  -0.0196999430
  +0.0054270454  +0.0000619314
  +0.3505341929  -0.0053293172
  +0.0000000000  +0.0000000000
  +0.0000000000  +0.0000000000
  +0.0011097214  -0.0022038572
  +0.1126650807  -0.0022085725
  -0.8598365117  -0.4857004336
  -0.0261005300  -0.0196279819
  +0.0036611283  -0.0006891282
  +0.1047538630  -0.0042578634
  +0.0000000000  +0.0000000000
  +0.0000000000  +0.0000000000
  -0.0045924542  -0.0001814742
  -0.0237295996  -0.0118311145
  +0.0144051886  +0.0224881505
  -0.4245743805  -0.9040175655
  -0.0056727879  -0.0088332438
  -0.0277419412  -0.0130994497

   0.5000000000  +0.5000000000  +0.5000000000
   0.0000000000  +0.0000000000
  +0.0000000000  +0.0000000000
  +0.0000000000  +0.0000000000
  +0.6033572033  +0.7963028402
  -0.0225221818  +0.0368051856
  -0.0000000014  +0.0000000006
  -0.0000145959  -0.0000352553
  -0.0000040525  -0.0000074985
  +0.0000000000  +0.0000000000
  +0.0000000000  +0.0000000000
  +0.0000000000  +0.0000000000
  +0.0431068095  -0.0019165791
  -0.4052571344  -0.9131838722
  -0.0000000001  +0.0000000007
  -0.0000166246  -0.0000035687
  -0.0000037758  -0.0000004113
  +0.0000000000  +0.0000000000
  +0.0000000000  +0.0000000000
  +0.0000000000  +0.0000000000
  -0.0000000004  -0.0000000011
  -0.0000000003  +0.0000000003
  -0.9840412313  +0.1779405940
  +0.0000012825  +0.0000090392
  +0.0000004925  +0.0000019790
  +0.0000000000  +0.0000000000
  +0.0000000000  +0.0000000000
  +0.0000000000  +0.0000000000
  +0.0000000000  +0.0000000000
  -0.0000000000  -0.0000000000
  +0.0000000000  -0.0000000000
  +0.2032000195  +0.0789667035
  -0.9411863591  -0.2581516015

   0.5000000000  +0.7500000000  +0.5000000000
   0.0000000000  +0.0000000000
  +0.0000000000  +0.0000000000
  -0.6002150227  -0.6069160600
  -0.0049791479  +0.0093420373
  -0.0030556715  -0.0001134210
  +0.0056457205  +0.0070987942
  -0.0959104720  -0.5118515504
  -0.0002610219  +0.0004935172
  +0.0000000000  +0.0000000000
  +0.0000000000  +0.0000000000
  +0.0023633651  +0.0071778151
  -0.7577990420  +0.5301207888
  +0.1337857825  +0.0529930217
  +0.0103366005  -0.0298158090
  -0.0016701466  +0.0051521694
  -0.3505574434  +0.0057337195
  +0.0000000000  +0.0000000000
  +0.0000000000  +0.0000000000
  +0.0010755751  +0.0022018128
  -0.0906504260  +0.0670279755
  -0.9273749184  -0.3393803885
  +0.0097697264  -0.0311755775
  -0.0004496380  +0.0036620418
  -0.1047832832  +0.0044660092
  +0.0000000000  +0.0000000000
  +0.0000000000  +0.0000000000
  +0.0028018643  -0.0036398760
  +0.0262226419  -0.0039542377
  +0.0177854691  +0.0199354979
  +0.7131413016  -0.6992425235
  +0.0100170547  -0.0031176711
  +0.0277027121  +0.0131820587

   0.7500000000  +0.0000000000  +0.5000000000
   0.0000000000  +0.0000000000
  +0.0000000000  +0.0000000000
  +0.1380812562  +0.6326015995
  +0.7076632300  +0.2313842267
  +0.0022102643  +0.0093594170
  -0.1528267857  +0.0426785887
  -0.0007247605  +0.0035672026
  +0.0337587455  -0.0000103103
  +0.0000000000  +0.0000000000
  +0.0000000000  +0.0000000000
  +0.0854163395  +0.3857189023
  -0.4851222889  -0.1570116474
  +0.0124086422  +0.0663403367
  -0.7249962225  +0.2048895211
  +0.0043625437  -0.0038745747
  +0.1083524484  -0.0003666481
  +0.0000000000  +0.0000000000
  +0.0000000000  +0.0000000000
  -0.0038532390  -0.0035255697
  +0.0063890279  -0.0019609477
  +0.5947128130  +0.7215221382
  +0.0541518994  -0.0502765639
  +0.0861137272  +0.3358043175
  -0.0025641530  +0.0019189603
  +0.0000000000  +0.0000000000
  +0.0000000000  +0.0000000000
  +0.0130705283  +0.0602377873
  -0.0507482768  -0.0166591604
  -0.0028803864  -0.0121464830
  +0.1999688602  -0.0555337685
  -0.0010821196  +0.0000039844
  +0.9747401063  +0.0009116082

   0.7500000000  +0.2500000000  +0.5000000000
   0.0000000000  +0.0000000000
  +0.0000000000  +0.0000000000
  -0.6115971658  +0.2113809395
  +0.4118666365  +0.6201072916
  -0.0102544791  -0.0030669850
  -0.1086757438  -0.1187655097
  +0.0007968298  +0.0046752728
  +0.0323583122  -0.0002191245
  +0.0000000000  +0.0000000000
  +0.0000000000  +0.0000000000
  -0.3760710193  +0.1294799281
  -0.2835321205  -0.4280030746
  -0.0681456444  -0.0271105834
  -0.5058031925  -0.5535464177
  -0.0006711048  -0.0023475717
  +0.1029206819  -0.0007031970
  +0.0000000000  +0.0000000000
  +0.0000000000  +0.0000000000
  -0.0051058822  -0.0001722278
  -0.0018558920  -0.0064827111
  +0.6728728203  +0.6353511046
  -0.0278802096  -0.0764048469
  -0.0264428202  -0.3689853017
  +0.0058209288  -0.0011430423
  +0.0000000000  +0.0000000000
  +0.0000000000  +0.0000000000
  -0.0554216228  +0.0186866391
  -0.0275088098  -0.0421058978
  +0.0125829349  +0.0048830520
  +0.1327575180  +0.1471950165
  -0.0054788369  +0.0082856281
  +0.9769737839  -0.0002496813

   0.7500000000  +0.5000000000  +0.5000000000
   0.0000000000  +0.0000000000
  +0.0000000000  +0.0000000000
  +0.1504992706  +0.8306944297
  -0.0724232923  +0.0377487336
  -0.0191456090  +0.0137352325
  +0.0000704378  +0.0003827586
  -0.4916311149  -0.1958500068
  -0.0034705836  -0.0009209679
  +0.0000000000  +0.0000000000
  +0.0000000000  +0.0000000000
  +0.0095170834  +0.0575042085
  +0.8149254760  -0.4094304505
  -0.1668324155  +0.1102750678
  +0.0016508619  +0.0316058900
  -0.0383009074  -0.0150364830
  +0.3494080170  +0.0095679185
  +0.0000000000  +0.0000000000
  +0.0000000000  +0.0000000000
  +0.0029816691  +0.0224525520
  +0.1394179799  -0.0669288417
  +0.8235683698  -0.5230413386
  +0.0016517709  +0.0481472031
  -0.0292795314  -0.0130871064
  +0.1426254740  +0.0064480455
  +0.0000000000  +0.0000000000
  +0.0000000000  +0.0000000000
  +0.0011470457  +0.0024138391
  +0.0217515389  -0.0206852028
  +0.0251680164  -0.0303412344
  -0.3393004641  -0.9387547414
  -0.0030604117  -0.0003091002
  +0.0326090466  -0.0089302820

   0.7500000000  +0.7500000000  +0.5000000000
   0.0000000000  +0.0000000000
  +0.0000000000  +0.0000000000
  -0.0662813727  +0.8502651958
  -0.0633563789  -0.0208560410
  +0.0193157251  +0.0053172416
  -0.0017946823  -0.0007058924
  -0.1725751408  +0.4878706237
  -0.0013521802  +0.0001695126
  +0.0000000000  +0.0000000000
  +0.0000000000  +0.0000000000
  +0.0031243461  -0.0468845030
  -0.8681247899  -0.2749543426
  -0.2019988532  -0.0523441474
  +0.0210687870  -0.0054165764
  +0.0107639538  -0.0308823113
  -0.3513099643  -0.0068256968
  +0.0000000000  +0.0000000000
  +0.0000000000  +0.0000000000
  +0.0014056213  -0.0191310306
  -0.1547959459  -0.0504516566
  +0.9408901674  +0.2522010341
  +0.0338087995  -0.0082427921
  +0.0090873465  -0.0258119136
  -0.1492252330  -0.0041498501
  +0.0000000000  +0.0000000000
  +0.0000000000  +0.0000000000
  -0.0009058932  -0.0020747527
  -0.0210437579  -0.0014747038
  +0.0284313694  +0.0003240914
  -0.8816417300  +0.4699851446
  -0.0009530834  -0.0033978192
  -0.0229202970  +0.0050440701

   0.0000000000  +0.0000000000  +0.7500000000
   0.0000000000  +0.0000000000
  +0.0028148202  +0.0005673219
  -0.5974190852  +0.8017831840
  +0.0026486051  +0.0040098398
  -0.0064431245  +0.0124075939
  -0.0002497807  +0.0006019617
  -0.0017322539  +0.0000835476
  -0.0017579948  +0.0009155998
  +0.0000000000  +0.0000000000
  -0.4005527840  -0.6643305443
  -0.0020753565  -0.0009940798
  +0.1959076291  +0.2812224335
  +0.0003780330  -0.0006835175
  +0.3255921562  +0.1328156921
  -0.0688375732  +0.0029432540
  +0.3902675791  -0.0066570019
  +0.0000000000  +0.0000000000
  -0.1109824483  -0.1614619529
  -0.0026736699  +0.0030523905
  -0.5360627862  -0.6791869073
  +0.0007992768  -0.0007442417
  +0.3054002545  +0.1045908473
  -0.3263145239  +0.0422571053
  +0.0214721821  -0.0008142234
  +0.0000000000  +0.0000000000
  +0.0915155219  +0.1428806648
  +0.0004205870  -0.0003159620
  +0.0464587283  +0.0621371853
  +0.0028473682  -0.0039680161
  +0.7424179541  +0.2793045469
  +0.4471926585  -0.0431038943
  -0.3659409247  +0.0147994559

   0.0000000000  +0.2500000000  +0.7500000000
   0.0000000000  +0.0000000000
  +0.0000000000  +0.0000000000
  -0.5731538706  +0.2825404605
  -0.7199181447  -0.2160707686
  +0.0083920039  +0.0049778091
  -0.0053510218  +0.1592742072
  +0.0012845963  +0.0033470918
  +0.0345219191  -0.0002997970
  +0.0000000000  +0.0000000000
  +0.0000000000  +0.0000000000
  +0.3600651901  -0.1784355872
  -0.4858046594  -0.1447129164
  -0.0546490944  -0.0389357213
  +0.0234539537  -0.7511333475
  +0.0002386056  +0.0057971569
  -0.1107990965  +0.0013392314
  +0.0000000000  +0.0000000000
  +0.0000000000  +0.0000000000
  -0.0041624340  +0.0031947696
  +0.0065272246  +0.0004466698
  -0.8109137849  -0.4707434834
  +0.0020567986  +0.0739055401
  -0.1987836762  -0.2752337585
  +0.0020588887  -0.0031622281
  +0.0000000000  +0.0000000000
  +0.0000000000  +0.0000000000
  -0.0569890650  +0.0273657833
  +0.0508999217  +0.0158488815
  -0.0106680485  -0.0069823064
  +0.0093131105  -0.2119637499
  -0.0083522557  +0.0022451206
  +0.9736056897  +0.0007787469

   0.0000000000  +0.5000000000  +0.7500000000
   0.0000000000  +0.0000000000
  +0.0000000000  +0.0000000000
  +0.4562128832  -0.4450352899
  -0.4767151296  +0.5823316068
  -0.0087822780  +0.0024903554
  +0.1564014249  -0.0421462362
  +0.0048421103  -0.0031213548
  -0.0330414042  -0.0001280005
  +0.0000000000  +0.0000000000
  +0.0000000000  +0.0000000000
  +0.2901561103  -0.2833071317
  +0.3227994641  -0.3946681693
  -0.0685703546  +0.0135382414
  +0.7221766842  -0.1952033762
  -0.0043995370  +0.0016988299
  -0.1050380623  -0.0003280263
  +0.0000000000  +0.0000000000
  +0.0000000000  +0.0000000000
  +0.0030543380  -0.0040713133
  +0.0033479883  -0.0061578847
  +0.8846353690  -0.2841372450
  +0.0715226049  -0.0271647815
  -0.2484495366  +0.2626969833
  -0.0044005317  +0.0012674772
  +0.0000000000  +0.0000000000
  +0.0000000000  +0.0000000000
  -0.0427431377  +0.0419864480
  -0.0314888848  +0.0387405664
  -0.0124645196  +0.0028378572
  +0.1951755247  -0.0533546689
  -0.0043882531  +0.0010449481
  +0.9761115646  +0.0001484074

   0.0000000000  +0.7500000000  +0.7500000000
   0.0000000000  +0.0000000000
  -0.0018953127  -0.0040939928
  +0.2636379567  -0.9644980370
  -0.0030902748  -0.0020565373
  +0.0139112656  -0.0007336814
  +0.0005097076  +0.0006673347
  +0.0007219303  -0.0011467815
  +0.0024206637  -0.0014034559
  +0.0000000000  +0.0000000000
  -0.5585833343  -0.4703774138
  +0.0002087959  +0.0029813688
  +0.4321746213  -0.0182530393
  +0.0011598227  -0.0002433344
  +0.3090863819  +0.2209668861
  -0.0021973874  +0.0649998109
  +0.1877962813  -0.3094403505
  +0.0000000000  +0.0000000000
  +0.0787580400  +0.2368856465
  +0.0011113179  -0.0041021275
  +0.7309145714  +0.4055645781
  -0.0016297080  +0.0001829716
  -0.1534870268  -0.3628159632
  +0.1402010653  -0.2513473902
  -0.0280713937  +0.0113722962
  +0.0000000000  +0.0000000000
  +0.1254803220  +0.1263535601
  -0.0001064841  -0.0006935589
  +0.0731374074  +0.0025561357
  +0.0035787772  -0.0029032213
  +0.5396730822  +0.4614499910
  +0.0302730816  -0.5651050728
  -0.2240462256  +0.2971061761

   0.2500000000  +0.0000000000  +0.7500000000
   0.0000000000  +0.0000000000
  +0.0028258883  -0.0114733683
  +0.7630214157  +0.6460724103
  +0.0019428177  +0.0035673515
  -0.0137239221  -0.0028630948
  -0.0005250697  -0.0042417101
  -0.0006654532  +0.0013016109
  -0.0039469083  +0.0003304198
  +0.0000000000  +0.0000000000
  +0.1058645530  -0.7420815255
  -0.0113208840  -0.0075542626
  +0.2625665590  +0.2978429239
  +0.0004499827  -0.0000608559
  -0.0884823334  -0.3600250875
  -0.0131252263  +0.0673947378
  -0.3674604404  +0.0555155896
  +0.0000000000  +0.0000000000
  -0.1413124329  +0.1783636635
  +0.0002743271  +0.0014094572
  +0.1624700964  +0.8335957464
  +0.0004519362  +0.0009830155
  -0.1045113837  +0.3538660745
  +0.2192558433  -0.2051274186
  +0.0246745086  +0.0057030507
  +0.0000000000  +0.0000000000
  +0.0779575337  -0.1564975681
  -0.0004835491  -0.0006983916
  -0.0287517332  -0.0706644554
  -0.0012759550  -0.0003393927
  -0.0607820879  +0.7369903807
  -0.3000368387  +0.4364649627
  -0.3646230936  -0.0573191917

   0.2500000000  +0.2500000000  +0.7500000000
   0.0000000000  +0.0000000000
  +0.5650535175  -0.4881733726
  +0.3188768011  -0.3101489745
  +0.0086709408  +0.0037619041
  +0.0015861284  -0.0000382502
  +0.1123907838  -0.1798042379
  +0.0402016709  -0.4448099301
  +0.0001180600  -0.0011450207
  +0.0000000000  +0.0000000000
  -0.2943793152  +0.3304209394
  +0.4606602493  -0.5828271622
  -0.0008517068  -0.0030249211
  +0.0003576430  -0.0022597606
  -0.1411266532  -0.4311878075
  +0.1522281019  +0.1523824602
  +0.0032747434  +0.0028556328
  +0.0000000000  +0.0000000000
  +0.0002529108  -0.0022515730
  +0.0021356442  +0.0000766330
  -0.1321876060  +0.0225951979
  -0.9894280802  -0.0550232486
  +0.0016283305  -0.0011421132
  -0.0005407257  -0.0008148027
  +0.0024011528  +0.0001785815
  +0.0000000000  +0.0000000000
  -0.0000408431  +0.0008645974
  -0.0002442149  +0.0003397747
  +0.1066870932  -0.0281763741
  -0.0173491573  +0.0005798072
  -0.0059658944  -0.0032452415
  +0.0060714500  +0.0004096493
  -0.9935349724  +0.0180778069

   0.2500000000  +0.5000000000  +0.7500000000
   0.0000000000  +0.0000000000
  +0.0000000000  +0.0000000000
  +0.5536358798  +0.6441658904
  -0.0249406543  +0.0632256163
  +0.0011968796  +0.0202275846
  -0.0010906915  -0.0013058920
  -0.4707215228  -0.2278641523
  -0.0018116365  +0.0007174801
  +0.0000000000  +0.0000000000
  +0.0000000000  +0.0000000000
  -0.0315759285  -0.0359741117
  -0.3249887352  +0.8488479598
  -0.0206337537  -0.2165198085
  -0.0097623218  +0.0283295156
  +0.0297296584  +0.0146639824
  -0.3490371318  +0.0204460077
  +0.0000000000  +0.0000000000
  +0.0000000000  +0.0000000000
  -0.0137245287  -0.0143304810
  -0.0561567147  +0.1593531622
  +0.1182539860  +0.9641454930
  -0.0151452293  +0.0487314037
  +0.0256294019  +0.0108329947
  -0.1547439822  +0.0132167728
  +0.0000000000  +0.0000000000
  +0.0000000000  +0.0000000000
  +0.0001283168  -0.0026037352
  -0.0227494480  +0.0193679286
  -0.0166357739  +0.0383323850
  +0.7385623529  -0.6713895155
  +0.0005210348  +0.0035609443
  -0.0300407808  -0.0141703379

   0.2500000000  +0.7500000000  +0.7500000000
   0.0000000000  +0.0000000000
  -0.6409520735  -0.4796463562
  +0.0307776941  +0.3284334935
  -0.0020575253  +0.0057124411
  +0.0001637754  +0.0001641400
  +0.0030328318  +0.0625709090
  +0.3355022885  -0.3657607583
  +0.0001472877  +0.0001046457
  +0.0000000000  +0.0000000000
  +0.1885702307  +0.2680413784
  -0.1749698793  +0.7758329963
  -0.0024409768  +0.0002728474
  +0.0009867793  -0.0010204502
  +0.4447498525  -0.2411686088
  +0.0611130173  +0.0184936987
  +0.0037326027  +0.0005134044
  +0.0000000000  +0.0000000000
  -0.0002427518  +0.0000614649
  +0.0000272777  +0.0014276643
  +0.0490626695  -0.1146050625
  -0.7014371147  +0.7017405520
  +0.0008110615  -0.0005001056
  +0.0002379846  -0.0002970385
  -0.0012455782  -0.0000015668
  +0.0000000000  +0.0000000000
  -0.0001969718  -0.0002217435
  +0.0001037513  +0.0001791040
  +0.0242454448  -0.0568777058
  +0.0063733044  -0.0063959805
  +0.0059585851  -0.0043649478
  +0.0010815363  -0.0003263188
  -0.9980178292  +0.0000746076

   0.5000000000  +0.0000000000  +0.7500000000
   0.0000000000  +0.0000000000
  +0.0000000000  +0.0000000000
  -0.3900219281  +0.5123266892
  -0.6920656084  +0.2814714611
  +0.0063621408  +0.0073374867
  +0.1579753831  +0.0336996583
  +0.0041762997  +0.0036973430
  -0.0317167654  +0.0000145599
  +0.0000000000  +0.0000000000
  +0.0000000000  +0.0000000000
  -0.2421388754  +0.3184719095
  +0.4742603076  -0.1932123254
  +0.0427979046  +0.0579652292
  +0.7335219324  +0.1557483864
  -0.0024141824  -0.0031046160
  -0.1008536484  +0.0001639226
  +0.0000000000  +0.0000000000
  +0.0000000000  +0.0000000000
  +0.0029691089  -0.0042042397
  -0.0063419708  +0.0031361877
  +0.5527875952  +0.7459363875
  -0.0771826347  -0.0175133731
  +0.3044513484  +0.1973416338
  +0.0052970343  -0.0013975284
  +0.0000000000  +0.0000000000
  +0.0000000000  +0.0000000000
  -0.0348697494  +0.0456878902
  +0.0453356900  -0.0183745677
  -0.0077910233  -0.0100973979
  -0.1900136667  -0.0407396530
  +0.0032370874  +0.0065594539
  -0.9779174894  -0.0002758626

   0.5000000000  +0.2500000000  +0.7500000000
   0.0000000000  +0.0000000000
  +0.0000000000  +0.0000000000
  -0.6070438887  +0.2216594751
  +0.4981303802  -0.5547698145
  +0.0089071536  +0.0030742596
  -0.1589156504  -0.0045920564
  +0.0039786490  +0.0004324671
  +0.0328823553  +0.0002147244
  +0.0000000000  +0.0000000000
  +0.0000000000  +0.0000000000
  +0.3720364498  -0.1350146680
  +0.3410001136  -0.3782446898
  -0.0615264373  -0.0271380330
  +0.7535183177  +0.0230795543
  +0.0051631481  +0.0021941576
  -0.1055142385  -0.0007572069
  +0.0000000000  +0.0000000000
  +0.0000000000  +0.0000000000
  +0.0044295405  -0.0026662349
  +0.0033168049  -0.0058421820
  +0.8922897083  +0.2856767639
  +0.0736303547  -0.0033204516
  +0.3383416072  -0.0470476346
  -0.0024337528  +0.0030166641
  +0.0000000000  +0.0000000000
  +0.0000000000  +0.0000000000
  -0.0563799958  +0.0210120012
  -0.0344388763  +0.0388734505
  -0.0113134900  -0.0042772002
  +0.2021329560  +0.0044973575
  -0.0004550503  +0.0079061660
  +0.9760095616  -0.0009919900

   0.5000000000  +0.5000000000  +0.7500000000
   0.0000000000  +0.0000000000
  +0.0000000000  +0.0000000000
  -0.7721343490  -0.3714385919
  +0.0100367484  +0.0059023193
  -0.0026059204  -0.0023357376
  -0.0074187556  +0.0054095294
  -0.2168473977  +0.4675326706
  +0.0003877124  -0.0002369038
  +0.0000000000  +0.0000000000
  +0.0000000000  +0.0000000000
  +0.0083689059  +0.0012366798
  +0.9022059761  +0.2075234657
  +0.1216746507  +0.0618176196
  -0.0163894013  -0.0061643866
  +0.0012332558  -0.0061052707
  +0.3520146660  +0.0009740198
  +0.0000000000  +0.0000000000
  +0.0000000000  +0.0000000000
  -0.0028099681  -0.0005737330
  -0.1045516155  -0.0249016612
  +0.8782424152  +0.4548236751
  +0.0156392529  +0.0062481239
  -0.0010251004  +0.0044123467
  -0.0998052181  -0.0010488611
  +0.0000000000  +0.0000000000
  +0.0000000000  +0.0000000000
  +0.0016991286  +0.0040202849
  -0.0145173139  +0.0010675769
  +0.0135930890  +0.0021215558
  -0.9979755875  -0.0568469133
  +0.0094547306  -0.0043923011
  -0.0161303478  +0.0049059135

   0.5000000000  +0.7500000000  +0.7500000000
   0.0000000000  +0.0000000000
  +0.0000000000  +0.0000000000
  -0.8009251435  -0.2812538607
  -0.0019686635  -0.0020962700
  -0.0002599795  -0.0003767365
  -0.0105631611  -0.0021227926
  +0.3206159386  +0.4201141721
  -0.0003382702  -0.0000461791
  +0.0000000000  +0.0000000000
  +0.0000000000  +0.0000000000
  +0.0018698132  -0.0006099904
  -0.9044153466  -0.1956083503
  +0.1252957060  +0.0694351423
  +0.0316730447  +0.0026345953
  -0.0013359424  -0.0003707868
  -0.3495886775  -0.0046737852
  +0.0000000000  +0.0000000000
  +0.0000000000  +0.0000000000
  -0.0003211588  +0.0001330141
  +0.1092032716  +0.0257291395
  +0.8548825982  +0.4945087873
  -0.0327575724  -0.0033304038
  +0.0003778536  +0.0000451685
  +0.1046613096  +0.0033247414
  +0.0000000000  +0.0000000000
  +0.0000000000  +0.0000000000
  +0.0052640838  -0.0003024999
  -0.0266760739  +0.0016328368
  -0.0262407520  -0.0062072446
  -0.9805902447  +0.1893803208
  -0.0104213984  -0.0060741127
  -0.0299853620  +0.0080034757

   0.7500000000  +0.0000000000  +0.7500000000
   0.0000000000  +0.0000000000
  +0.0000000000  +0.0000000000
  +0.0110166212  -0.6471654069
  -0.7408539285  +0.0747678507
  +0.0094965968  -0.0025950011
  -0.0510114079  +0.1508915093
  -0.0003932385  +0.0042665197
  +0.0333932082  +0.0000187505
  +0.0000000000  +0.0000000000
  +0.0000000000  +0.0000000000
  +0.0082284542  -0.3957263779
  +0.5083052035  -0.0493892499
  +0.0642967414  -0.0266876778
  -0.2439743047  +0.7118079212
  -0.0034312998  -0.0052660916
  +0.1069550521  +0.0005277874
  +0.0000000000  +0.0000000000
  +0.0000000000  +0.0000000000
  +0.0031938993  -0.0041502648
  +0.0057878455  +0.0037572636
  -0.9279496809  -0.0911368048
  -0.0534463464  +0.0547269700
  +0.2387565309  -0.2601057828
  +0.0024304024  +0.0033572752
  +0.0000000000  +0.0000000000
  +0.0000000000  +0.0000000000
  +0.0009020127  -0.0608200069
  +0.0523088805  -0.0053908970
  -0.0122168909  +0.0040894813
  +0.0652551801  -0.1944374855
  +0.0042187465  +0.0028718515
  +0.9753344641  -0.0011487064

   0.7500000000  +0.2500000000  +0.7500000000
   0.0000000000  +0.0000000000
  +0.0000000000  +0.0000000000
  +0.0000000000  +0.0000000000
  +0.1049954266  +0.9944726129
  +0.0000016932  -0.0000006410
  +0.0000023193  -0.0000020295
  -0.0000000621  -0.0000014523
  -0.0004272552  +0.0000058903
  +0.0000000000  +0.0000000000
  +0.0000000000  +0.0000000000
  +0.0000000000  +0.0000000000
  +0.0000000008  +0.0000000001
  +0.0639545043  +0.8662582814
  -0.2064489240  -0.4493516828
  -0.0301851848  -0.0075612753
  -0.0000016340  +0.0000058043
  +0.0000000000  +0.0000000000
  +0.0000000000  +0.0000000000
  +0.0000000000  +0.0000000000
  +0.0000000019  -0.0000000023
  +0.1479291518  +0.0684530187
  +0.3434852484  +0.0263003599
  -0.6319122826  +0.6748660549
  +0.0000164734  +0.0000163456
  +0.0000000000  +0.0000000000
  +0.0000000000  +0.0000000000
  +0.0000000000  +0.0000000000
  -0.0000007118  +0.0000005226
  -0.3636071003  -0.2944771015
  -0.7565140475  -0.2538575293
  -0.3195866018  +0.2052605151
  -0.0035918123  -0.0059655543

   0.7500000000  +0.5000000000  +0.7500000000
   0.0000000000  +0.0000000000
  +0.0000000000  +0.0000000000
  -0.3468475301  +0.5472415585
  -0.5799414137  -0.4661931219
  +0.0051411132  -0.0076502624
  -0.1511562007  -0.0499119307
  -0.0023032211  -0.0043900268
  -0.0332634959  +0.0000685528
  +0.0000000000  +0.0000000000
  +0.0000000000  +0.0000000000
  -0.2106444657  +0.3342914741
  +0.3988924464  +0.3188943948
  +0.0256009801  -0.0626732230
  -0.7155099787  -0.2347720148
  +0.0033562510  +0.0050350088
  -0.1066625108  +0.0001484216
  +0.0000000000  +0.0000000000
  +0.0000000000  +0.0000000000
  -0.0020157171  +0.0047027232
  +0.0057688166  +0.0039448651
  -0.1099489964  +0.9261226028
  -0.0738177411  +0.0000241438
  +0.1122237124  +0.3347340250
  -0.0040233915  -0.0051813649
  +0.0000000000  +0.0000000000
  +0.0000000000  +0.0000000000
  +0.0324971280  -0.0512041829
  -0.0409413705  -0.0329538949
  +0.0054633714  -0.0110228043
  -0.1940798869  -0.0642974037
  +0.0167551960  -0.0023741317
  +0.9753564470  +0.0009122641

   0.7500000000  +0.7500000000  +0.7500000000
   0.0000000000  +0.0000000000
  +0.2208815733  -0.7126786933
  -0.2046786519  -0.3960087260
  +0.0053702644  -0.0046568181
  +0.0007019062  +0.0012866835
  +0.0938007874  -0.3781950829
  -0.0593430546  +0.2986287239
  -0.0001455799  +0.0007953908
  +0.0000000000  +0.0000000000
  +0.0888443433  +0.4333610506
  -0.6148773263  -0.4125283493
  +0.0029657803  +0.0020500722
  -0.0017245512  +0.0020860008
  +0.0806626005  +0.3009058913
  +0.1212090067  +0.3798329552
  +0.0017398774  -0.0035011700
  +0.0000000000  +0.0000000000
  +0.0020485042  -0.0011721039
  -0.0021587648  +0.0001494296
  -0.1271398717  +0.0401772471
  -0.4579761153  -0.8788966080
  +0.0015519490  -0.0007888643
  +0.0012292488  +0.0009414701
  +0.0020415180  -0.0001523268
  +0.0000000000  +0.0000000000
  +0.0004707126  -0.0002677303
  -0.0002277119  -0.0002798844
  -0.0922975521  +0.0209053971
  +0.0057224121  +0.0136491462
  +0.0051164224  -0.0031284506
  +0.0034025025  -0.0040450377
  +0.9952753734  +0.0136997957
