
             +---------------------------------------------------+
             |                                                   |
             |                   WANNIER90                       |
             |                                                   |
             +---------------------------------------------------+
             |                                                   |
             |        Welcome to the Maximally-Localized         |
             |        Generalized Wannier Functions code         |
             |            http://www.wannier.org                 |
             |                                                   |
             |  Wannier90 v2.x Authors:                          |
             |    Arash A. Mostofi  (Imperial College London)    |
             |    Giovanni Pizzi    (EPFL)                       |
             |    Ivo Souza         (Universidad del Pais Vasco) |
             |    Jonathan R. Yates (University of Oxford)       |
             |                                                   |
             |  Wannier90 Contributors:                          |
             |    Young-Su Lee       (KIST, S. Korea)            |
             |    Matthew Shelley    (Imperial College London)   |
             |    Nicolas Poilvert   (Penn State University)     |
             |    Raffaello Bianco   (Paris 6 and CNRS)          |
             |    Gabriele Sclauzero (ETH Zurich)                |
             |    David Strubbe (MIT, USA)                       |
             |    Rei Sakuma (Lund University, Sweden)           |
             |    Yusuke Nomura (U. Tokyo, Japan)                |
             |    Takashi Koretsune (Riken, Japan)               |
             |    Yoshiro Nohara (ASMS Co. Ltd., Japan)          |
             |    Ryotaro Arita (Riken, Japan)                   |
             |    Lorenzo Paulatto (UPMC Paris)                  |
             |    Florian Thole (ETH Zurich)                     |
             |    Pablo Garcia Fernandez (Unican, Spain)         |
             |    Dominik Gresch (ETH Zurich)                    |
             |    Samuel Ponce (University of Oxford)            |
             |    Marco Gibertini (EPFL)                         |
             |    Christian Stieger (ETHZ, CH)                   |
             |    Stepan Tsirkin (Universidad del Pais Vasco)    |
             |                                                   |
             |  Wannier77 Authors:                               |
             |    Nicola Marzari    (EPFL)                       |
             |    Ivo Souza         (Universidad del Pais Vasco) |
             |    David Vanderbilt  (Rutgers University)         |
             |                                                   |
             |  Please cite                                      |
             |                                                   |
             |  [ref] "An updated version of Wannier90:          |
             |        A Tool for Obtaining Maximally Localised   |
             |        Wannier Functions", A. A. Mostofi,         |
             |        J. R. Yates, G. Pizzi, Y. S. Lee,          |
             |        I. Souza, D. Vanderbilt and N. Marzari,    |
             |        Comput. Phys. Commun. 185, 2309 (2014)     |
             |        http://dx.doi.org/10.1016/j.cpc.2014.05.003|
             |                                                   |
             |  in any publications arising from the use of      |
             |  this code. For the method please cite            |
             |                                                   |
             |  [ref] "Maximally Localized Generalised Wannier   |
             |         Functions for Composite Energy Bands"     |
             |         N. Marzari and D. Vanderbilt              |
             |         Phys. Rev. B 56 12847 (1997)              |
             |                                                   |
             |  [ref] "Maximally Localized Wannier Functions     |
             |         for Entangled Energy Bands"               |
             |         I. Souza, N. Marzari and D. Vanderbilt    |
             |         Phys. Rev. B 65 035109 (2001)             |
             |                                                   |
             |                                                   |
             | Copyright (c) 1996-2017                           |
             |        Arash A. Mostofi, Jonathan R. Yates,       |
             |        Young-Su Lee, Giovanni Pizzi, Ivo Souza,   |
             |        David Vanderbilt and Nicola Marzari        |
             |                                                   |
             |      Release: 2.1.0+git   13th January 2017       |
             |                                                   |
             | This program is free software; you can            |
             | redistribute it and/or modify it under the terms  |
             | of the GNU General Public License as published by |
             | the Free Software Foundation; either version 2 of |
             | the License, or (at your option) any later version|
             |                                                   |
             | This program is distributed in the hope that it   |
             | will be useful, but WITHOUT ANY WARRANTY; without |
             | even the implied warranty of MERCHANTABILITY or   |
             | FITNESS FOR A PARTICULAR PURPOSE. See the GNU     |
             | General Public License for more details.          |
             |                                                   |
             | You should have received a copy of the GNU General|
             | Public License along with this program; if not,   |
             | write to the Free Software Foundation, Inc.,      |
             | 675 Mass Ave, Cambridge, MA 02139, USA.           |
             |                                                   |
             +---------------------------------------------------+
             |    Execution started on 21Jun2018 at 21:06:27     |
             +---------------------------------------------------+
 
 ******************************************************************************
 * -> Using CODATA 2006 constant values                                       *
 *    (http://physics.nist.gov/cuu/Constants/index.html)                      *
 * -> Using Bohr value from CODATA                                            *
 ******************************************************************************
 

 Running in serial (with serial executable)

                                    ------
                                    SYSTEM
                                    ------

                              Lattice Vectors (Ang)
                    a_1    -2.825806   0.000000   2.825806
                    a_2     0.000000   2.825806   2.825806
                    a_3    -2.825806   2.825806   0.000000

                   Unit Cell Volume:      45.12915  (Ang^3)

                        Reciprocal-Space Vectors (Ang^-1)
                    b_1    -1.111751  -1.111751   1.111751
                    b_2     1.111751   1.111751   1.111751
                    b_3    -1.111751   1.111751  -1.111751
  
 *----------------------------------------------------------------------------*
 |   Site       Fractional Coordinate          Cartesian Coordinate (Ang)     |
 +----------------------------------------------------------------------------+
 | Ga   1   0.00000   0.00000   0.00000   |    0.00000   0.00000   0.00000    |
 | As   1   0.25000   0.25000   0.25000   |   -1.41290   1.41290   1.41290    |
 *----------------------------------------------------------------------------*
  
                                ------------
                                K-POINT GRID
                                ------------
  
             Grid size =  4 x  4 x  4      Total points =   64
  
  
 *---------------------------------- MAIN ------------------------------------*
 |  Number of Wannier Functions               :                 8             |
 |  Number of input Bloch states              :                12             |
 |  Output verbosity (1=low, 5=high)          :                 1             |
 |  Timing Level (1=low, 5=high)              :                 1             |
 |  Optimisation (0=memory, 3=speed)          :                 3             |
 |  Length Unit                               :               Ang             |
 |  Post-processing setup (write *.nnkp)      :                 F             |
 |  Using Gamma-only branch of algorithms     :                 F             |
 *----------------------------------------------------------------------------*
 *------------------------------- WANNIERISE ---------------------------------*
 |  Total number of iterations                :              1000             |
 |  Number of CG steps before reset           :                 5             |
 |  Trial step length for line search         :             2.000             |
 |  Convergence tolerence                     :         0.100E-09             |
 |  Convergence window                        :                -1             |
 |  Iterations between writing output         :                40             |
 |  Iterations between backing up to disk     :               100             |
 |  Write r^2_nm to file                      :                 F             |
 |  Write xyz WF centres to file              :                 F             |
 |  Write on-site energies <0n|H|0n> to file  :                 F             |
 |  Use guiding centre to control phases      :                 F             |
 |  Use phases for initial projections        :                 F             |
 *----------------------------------------------------------------------------*
 *------------------------------- DISENTANGLE --------------------------------*
 |  Using band disentanglement                :                 T             |
 |  Total number of iterations                :              1200             |
 |  Mixing ratio                              :             1.000             |
 |  Convergence tolerence                     :         1.000E-10             |
 |  Convergence window                        :                 3             |
 *----------------------------------------------------------------------------*
 Time to read parameters        0.012 (sec)

 *---------------------------------- K-MESH ----------------------------------*
 +----------------------------------------------------------------------------+
 |                    Distance to Nearest-Neighbour Shells                    |
 |                    ------------------------------------                    |
 |          Shell             Distance (Ang^-1)          Multiplicity         |
 |          -----             -----------------          ------------         |
 |             1                   0.481402                      8            |
 |             2                   0.555875                      6            |
 |             3                   0.786127                     12            |
 |             4                   0.921815                     24            |
 |             5                   0.962805                      8            |
 |             6                   1.111751                      6            |
 |             7                   1.211502                     24            |
 |             8                   1.242975                     24            |
 |             9                   1.361611                     24            |
 |            10                   1.444207                     32            |
 |            11                   1.572253                     12            |
 |            12                   1.644302                     48            |
 +----------------------------------------------------------------------------+
 | The b-vectors are chosen automatically                                     |
 | The following shells are used:   1                                         |
 +----------------------------------------------------------------------------+
 |                        Shell   # Nearest-Neighbours                        |
 |                        -----   --------------------                        |
 |                          1               8                                 |
 +----------------------------------------------------------------------------+
 | Completeness relation is fully satisfied [Eq. (B1), PRB 56, 12847 (1997)]  |
 +----------------------------------------------------------------------------+
 |                  b_k Vectors (Ang^-1) and Weights (Ang^2)                  |
 |                  ----------------------------------------                  |
 |            No.         b_k(x)      b_k(y)      b_k(z)        w_b           |
 |            ---        --------------------------------     --------        |
 |             1        -0.277938    0.277938   -0.277938     1.618136        |
 |             2         0.277938    0.277938    0.277938     1.618136        |
 |             3        -0.277938   -0.277938    0.277938     1.618136        |
 |             4        -0.277938    0.277938    0.277938     1.618136        |
 |             5         0.277938   -0.277938    0.277938     1.618136        |
 |             6        -0.277938   -0.277938   -0.277938     1.618136        |
 |             7         0.277938    0.277938   -0.277938     1.618136        |
 |             8         0.277938   -0.277938   -0.277938     1.618136        |
 +----------------------------------------------------------------------------+
 |                           b_k Directions (Ang^-1)                          |
 |                           -----------------------                          |
 |            No.           x           y           z                         |
 |            ---        --------------------------------                     |
 |             1        -0.277938    0.277938   -0.277938                     |
 |             2         0.277938    0.277938    0.277938                     |
 |             3        -0.277938   -0.277938    0.277938                     |
 |             4        -0.277938    0.277938    0.277938                     |
 +----------------------------------------------------------------------------+
  
 Time to get kmesh              0.064 (sec)
 *============================================================================*
 |                              MEMORY ESTIMATE                               |
 |         Maximum RAM allocated during each phase of the calculation         |
 *============================================================================*
 |                        Disentanglement            1.92 Mb                  |
 |                            Wannierise:            1.54 Mb                  |
 |                          plot_wannier:            1.54 Mb                  |
 *----------------------------------------------------------------------------*
  
 Starting a new Wannier90 calculation ...


 Reading overlaps from gaas.mmn    :  Created on  6Jun2018 at  1:38:12

 Reading projections from gaas.amn :  Created on  6Jun2018 at  1:38: 2

 Time to read overlaps          0.072 (sec)

 *------------------------------- DISENTANGLE --------------------------------*
 +----------------------------------------------------------------------------+
 |                              Energy  Windows                               |
 |                              ---------------                               |
 |                   Outer:   -5.11174  to   24.00000  (eV)                   |
 |                   Inner:   -5.11174  to   14.00000  (eV)                   |
 +----------------------------------------------------------------------------+
   Number of target bands to extract:    8

                   Unitarised projection of Wannier functions                  
                   ------------------------------------------                  
   A_mn = <psi_m|g_n> --> S = A.A^+ --> U = S^-1/2.A
   In dis_project... done
   Using an inner window (linner = T)
   In dis_proj_froz... done

                   Extraction of optimally-connected subspace                  
                   ------------------------------------------                  
 +---------------------------------------------------------------------+<-- DIS
 |  Iter     Omega_I(i-1)      Omega_I(i)      Delta (frac.)    Time   |<-- DIS
 +---------------------------------------------------------------------+<-- DIS
       1      13.86935244      14.17982587      -2.190E-02      0.00    <-- DIS
       2      13.86935244      14.17982587      -2.190E-02      0.01    <-- DIS
       3      13.86935244      14.17982587      -2.190E-02      0.02    <-- DIS
       4      13.86935244      14.17982587      -2.190E-02      0.03    <-- DIS
       5      13.86935244      14.17982587      -2.190E-02      0.04    <-- DIS
       6      13.86935244      14.17982587      -2.190E-02      0.05    <-- DIS
       7      13.86935244      14.17982587      -2.190E-02      0.05    <-- DIS
       8      13.86935244      14.17982587      -2.190E-02      0.06    <-- DIS
       9      13.86935244      14.17982587      -2.190E-02      0.07    <-- DIS
      10      13.86935244      14.17982587      -2.190E-02      0.08    <-- DIS
      11      13.86935244      14.17982587      -2.190E-02      0.09    <-- DIS
      12      13.86935244      14.17982587      -2.190E-02      0.10    <-- DIS
      13      13.86935244      14.17982587      -2.190E-02      0.11    <-- DIS
      14      13.86935244      14.17982587      -2.190E-02      0.12    <-- DIS
      15      13.86935244      14.17982587      -2.190E-02      0.13    <-- DIS
      16      13.86935244      14.17982587      -2.190E-02      0.14    <-- DIS
      17      13.86935244      14.17982587      -2.190E-02      0.14    <-- DIS
      18      13.86935244      14.17982587      -2.190E-02      0.15    <-- DIS
      19      13.86935244      14.17982587      -2.190E-02      0.16    <-- DIS
      20      13.86935244      14.17982587      -2.190E-02      0.17    <-- DIS
      21      13.86935244      14.17982587      -2.190E-02      0.18    <-- DIS
      22      13.86935244      14.17982587      -2.190E-02      0.19    <-- DIS
      23      13.86935244      14.17982587      -2.190E-02      0.20    <-- DIS
      24      13.86935244      14.17982587      -2.190E-02      0.21    <-- DIS
      25      13.86935244      14.17982587      -2.190E-02      0.22    <-- DIS
      26      13.86935244      14.17982587      -2.190E-02      0.23    <-- DIS
      27      13.86935244      14.17982587      -2.190E-02      0.24    <-- DIS
      28      13.86935244      14.17982587      -2.190E-02      0.25    <-- DIS
      29      13.86935244      14.17982587      -2.190E-02      0.25    <-- DIS
      30      13.86935244      14.17982587      -2.190E-02      0.26    <-- DIS
      31      13.86935244      14.17982587      -2.190E-02      0.27    <-- DIS
      32      13.86935244      14.17982587      -2.190E-02      0.28    <-- DIS
      33      13.86935244      14.17982587      -2.190E-02      0.29    <-- DIS
      34      13.86935244      14.17982587      -2.190E-02      0.30    <-- DIS
      35      13.86935244      14.17982587      -2.190E-02      0.31    <-- DIS
      36      13.86935244      14.17982587      -2.190E-02      0.32    <-- DIS
      37      13.86935244      14.17982587      -2.190E-02      0.33    <-- DIS
      38      13.86935244      14.17982587      -2.190E-02      0.34    <-- DIS
      39      13.86935244      14.17982587      -2.190E-02      0.34    <-- DIS
      40      13.86935244      14.17982587      -2.190E-02      0.35    <-- DIS
      41      13.86935244      14.17982587      -2.190E-02      0.36    <-- DIS
      42      13.86935244      14.17982587      -2.190E-02      0.37    <-- DIS
      43      13.86935244      14.17982587      -2.190E-02      0.38    <-- DIS
      44      13.86935244      14.17982587      -2.190E-02      0.39    <-- DIS
      45      13.86935244      14.17982587      -2.190E-02      0.40    <-- DIS
      46      13.86935244      14.17982587      -2.190E-02      0.41    <-- DIS
      47      13.86935244      14.17982587      -2.190E-02      0.42    <-- DIS
      48      13.86935244      14.17982587      -2.190E-02      0.43    <-- DIS
      49      13.86935244      14.17982587      -2.190E-02      0.44    <-- DIS
      50      13.86935244      14.17982587      -2.190E-02      0.45    <-- DIS
      51      13.86935244      14.17982587      -2.190E-02      0.46    <-- DIS
      52      13.86935244      14.17982587      -2.190E-02      0.46    <-- DIS
      53      13.86935244      14.17982587      -2.190E-02      0.47    <-- DIS
      54      13.86935244      14.17982587      -2.190E-02      0.48    <-- DIS
      55      13.86935244      14.17982587      -2.190E-02      0.49    <-- DIS
      56      13.86935244      14.17982587      -2.190E-02      0.50    <-- DIS
      57      13.86935244      14.17982587      -2.190E-02      0.51    <-- DIS
      58      13.86935244      14.17982587      -2.190E-02      0.52    <-- DIS
      59      13.86935244      14.17982587      -2.190E-02      0.53    <-- DIS
      60      13.86935244      14.17982587      -2.190E-02      0.54    <-- DIS
      61      13.86935244      14.17982587      -2.190E-02      0.55    <-- DIS
      62      13.86935244      14.17982587      -2.190E-02      0.56    <-- DIS
      63      13.86935244      14.17982587      -2.190E-02      0.56    <-- DIS
      64      13.86935244      14.17982587      -2.190E-02      0.57    <-- DIS
      65      13.86935244      14.17982587      -2.190E-02      0.58    <-- DIS
      66      13.86935244      14.17982587      -2.190E-02      0.59    <-- DIS
      67      13.86935244      14.17982587      -2.190E-02      0.60    <-- DIS
      68      13.86935244      14.17982587      -2.190E-02      0.61    <-- DIS
      69      13.86935244      14.17982587      -2.190E-02      0.62    <-- DIS
      70      13.86935244      14.17982587      -2.190E-02      0.63    <-- DIS
      71      13.86935244      14.17982587      -2.190E-02      0.64    <-- DIS
      72      13.86935244      14.17982587      -2.190E-02      0.65    <-- DIS
      73      13.86935244      14.17982587      -2.190E-02      0.65    <-- DIS
      74      13.86935244      14.17982587      -2.190E-02      0.66    <-- DIS
      75      13.86935244      14.17982587      -2.190E-02      0.67    <-- DIS
      76      13.86935244      14.17982587      -2.190E-02      0.68    <-- DIS
      77      13.86935244      14.17982587      -2.190E-02      0.69    <-- DIS
      78      13.86935244      14.17982587      -2.190E-02      0.70    <-- DIS
      79      13.86935244      14.17982587      -2.190E-02      0.71    <-- DIS
      80      13.86935244      14.17982587      -2.190E-02      0.72    <-- DIS
      81      13.86935244      14.17982587      -2.190E-02      0.73    <-- DIS
      82      13.86935244      14.17982587      -2.190E-02      0.74    <-- DIS
      83      13.86935244      14.17982587      -2.190E-02      0.75    <-- DIS
      84      13.86935244      14.17982587      -2.190E-02      0.75    <-- DIS
      85      13.86935244      14.17982587      -2.190E-02      0.76    <-- DIS
      86      13.86935244      14.17982587      -2.190E-02      0.77    <-- DIS
      87      13.86935244      14.17982587      -2.190E-02      0.78    <-- DIS
      88      13.86935244      14.17982587      -2.190E-02      0.79    <-- DIS
      89      13.86935244      14.17982587      -2.190E-02      0.80    <-- DIS
      90      13.86935244      14.17982587      -2.190E-02      0.81    <-- DIS
      91      13.86935244      14.17982587      -2.190E-02      0.82    <-- DIS
      92      13.86935244      14.17982587      -2.190E-02      0.83    <-- DIS
      93      13.86935244      14.17982587      -2.190E-02      0.83    <-- DIS
      94      13.86935244      14.17982587      -2.190E-02      0.84    <-- DIS
      95      13.86935244      14.17982587      -2.190E-02      0.85    <-- DIS
      96      13.86935244      14.17982587      -2.190E-02      0.86    <-- DIS
      97      13.86935244      14.17982587      -2.190E-02      0.87    <-- DIS
      98      13.86935244      14.17982587      -2.190E-02      0.88    <-- DIS
      99      13.86935244      14.17982587      -2.190E-02      0.89    <-- DIS
     100      13.86935244      14.17982587      -2.190E-02      0.90    <-- DIS
     101      13.86935244      14.17982587      -2.190E-02      0.91    <-- DIS
     102      13.86935244      14.17982587      -2.190E-02      0.92    <-- DIS
     103      13.86935244      14.17982587      -2.190E-02      0.93    <-- DIS
     104      13.86935244      14.17982587      -2.190E-02      0.94    <-- DIS
     105      13.86935244      14.17982587      -2.190E-02      0.94    <-- DIS
     106      13.86935244      14.17982587      -2.190E-02      0.95    <-- DIS
     107      13.86935244      14.17982587      -2.190E-02      0.96    <-- DIS
     108      13.86935244      14.17982587      -2.190E-02      0.97    <-- DIS
     109      13.86935244      14.17982587      -2.190E-02      0.98    <-- DIS
     110      13.86935244      14.17982587      -2.190E-02      0.99    <-- DIS
     111      13.86935244      14.17982587      -2.190E-02      1.00    <-- DIS
     112      13.86935244      14.17982587      -2.190E-02      1.01    <-- DIS
     113      13.86935244      14.17982587      -2.190E-02      1.02    <-- DIS
     114      13.86935244      14.17982587      -2.190E-02      1.03    <-- DIS
     115      13.86935244      14.17982587      -2.190E-02      1.03    <-- DIS
     116      13.86935244      14.17982587      -2.190E-02      1.04    <-- DIS
     117      13.86935244      14.17982587      -2.190E-02      1.05    <-- DIS
     118      13.86935244      14.17982587      -2.190E-02      1.06    <-- DIS
     119      13.86935244      14.17982587      -2.190E-02      1.07    <-- DIS
     120      13.86935244      14.17982587      -2.190E-02      1.08    <-- DIS
     121      13.86935244      14.17982587      -2.190E-02      1.09    <-- DIS
     122      13.86935244      14.17982587      -2.190E-02      1.10    <-- DIS
     123      13.86935244      14.17982587      -2.190E-02      1.11    <-- DIS
     124      13.86935244      14.17982587      -2.190E-02      1.12    <-- DIS
     125      13.86935244      14.17982587      -2.190E-02      1.13    <-- DIS
     126      13.86935244      14.17982587      -2.190E-02      1.13    <-- DIS
     127      13.86935244      14.17982587      -2.190E-02      1.14    <-- DIS
     128      13.86935244      14.17982587      -2.190E-02      1.15    <-- DIS
     129      13.86935244      14.17982587      -2.190E-02      1.16    <-- DIS
     130      13.86935244      14.17982587      -2.190E-02      1.17    <-- DIS
     131      13.86935244      14.17982587      -2.190E-02      1.18    <-- DIS
     132      13.86935244      14.17982587      -2.190E-02      1.19    <-- DIS
     133      13.86935244      14.17982587      -2.190E-02      1.20    <-- DIS
     134      13.86935244      14.17982587      -2.190E-02      1.21    <-- DIS
     135      13.86935244      14.17982587      -2.190E-02      1.22    <-- DIS
     136      13.86935244      14.17982587      -2.190E-02      1.23    <-- DIS
     137      13.86935244      14.17982587      -2.190E-02      1.23    <-- DIS
     138      13.86935244      14.17982587      -2.190E-02      1.24    <-- DIS
     139      13.86935244      14.17982587      -2.190E-02      1.25    <-- DIS
     140      13.86935244      14.17982587      -2.190E-02      1.26    <-- DIS
     141      13.86935244      14.17982587      -2.190E-02      1.27    <-- DIS
     142      13.86935244      14.17982587      -2.190E-02      1.28    <-- DIS
     143      13.86935244      14.17982587      -2.190E-02      1.29    <-- DIS
     144      13.86935244      14.17982587      -2.190E-02      1.30    <-- DIS
     145      13.86935244      14.17982587      -2.190E-02      1.31    <-- DIS
     146      13.86935244      14.17982587      -2.190E-02      1.32    <-- DIS
     147      13.86935244      14.17982587      -2.190E-02      1.32    <-- DIS
     148      13.86935244      14.17982587      -2.190E-02      1.33    <-- DIS
     149      13.86935244      14.17982587      -2.190E-02      1.34    <-- DIS
     150      13.86935244      14.17982587      -2.190E-02      1.35    <-- DIS
     151      13.86935244      14.17982587      -2.190E-02      1.36    <-- DIS
     152      13.86935244      14.17982587      -2.190E-02      1.37    <-- DIS
     153      13.86935244      14.17982587      -2.190E-02      1.38    <-- DIS
     154      13.86935244      14.17982587      -2.190E-02      1.39    <-- DIS
     155      13.86935244      14.17982587      -2.190E-02      1.40    <-- DIS
     156      13.86935244      14.17982587      -2.190E-02      1.41    <-- DIS
     157      13.86935244      14.17982587      -2.190E-02      1.42    <-- DIS
     158      13.86935244      14.17982587      -2.190E-02      1.42    <-- DIS
     159      13.86935244      14.17982587      -2.190E-02      1.43    <-- DIS
     160      13.86935244      14.17982587      -2.190E-02      1.44    <-- DIS
     161      13.86935244      14.17982587      -2.190E-02      1.45    <-- DIS
     162      13.86935244      14.17982587      -2.190E-02      1.46    <-- DIS
     163      13.86935244      14.17982587      -2.190E-02      1.47    <-- DIS
     164      13.86935244      14.17982587      -2.190E-02      1.48    <-- DIS
     165      13.86935244      14.17982587      -2.190E-02      1.49    <-- DIS
     166      13.86935244      14.17982587      -2.190E-02      1.50    <-- DIS
     167      13.86935244      14.17982587      -2.190E-02      1.51    <-- DIS
     168      13.86935244      14.17982587      -2.190E-02      1.52    <-- DIS
     169      13.86935244      14.17982587      -2.190E-02      1.53    <-- DIS
     170      13.86935244      14.17982587      -2.190E-02      1.53    <-- DIS
     171      13.86935244      14.17982587      -2.190E-02      1.54    <-- DIS
     172      13.86935244      14.17982587      -2.190E-02      1.55    <-- DIS
     173      13.86935244      14.17982587      -2.190E-02      1.56    <-- DIS
     174      13.86935244      14.17982587      -2.190E-02      1.57    <-- DIS
     175      13.86935244      14.17982587      -2.190E-02      1.58    <-- DIS
     176      13.86935244      14.17982587      -2.190E-02      1.59    <-- DIS
     177      13.86935244      14.17982587      -2.190E-02      1.60    <-- DIS
     178      13.86935244      14.17982587      -2.190E-02      1.61    <-- DIS
     179      13.86935244      14.17982587      -2.190E-02      1.62    <-- DIS
     180      13.86935244      14.17982587      -2.190E-02      1.62    <-- DIS
     181      13.86935244      14.17982587      -2.190E-02      1.63    <-- DIS
     182      13.86935244      14.17982587      -2.190E-02      1.64    <-- DIS
     183      13.86935244      14.17982587      -2.190E-02      1.65    <-- DIS
     184      13.86935244      14.17982587      -2.190E-02      1.66    <-- DIS
     185      13.86935244      14.17982587      -2.190E-02      1.67    <-- DIS
     186      13.86935244      14.17982587      -2.190E-02      1.68    <-- DIS
     187      13.86935244      14.17982587      -2.190E-02      1.69    <-- DIS
     188      13.86935244      14.17982587      -2.190E-02      1.70    <-- DIS
     189      13.86935244      14.17982587      -2.190E-02      1.71    <-- DIS
     190      13.86935244      14.17982587      -2.190E-02      1.72    <-- DIS
     191      13.86935244      14.17982587      -2.190E-02      1.73    <-- DIS
     192      13.86935244      14.17982587      -2.190E-02      1.73    <-- DIS
     193      13.86935244      14.17982587      -2.190E-02      1.74    <-- DIS
     194      13.86935244      14.17982587      -2.190E-02      1.75    <-- DIS
     195      13.86935244      14.17982587      -2.190E-02      1.76    <-- DIS
     196      13.86935244      14.17982587      -2.190E-02      1.77    <-- DIS
     197      13.86935244      14.17982587      -2.190E-02      1.78    <-- DIS
     198      13.86935244      14.17982587      -2.190E-02      1.79    <-- DIS
     199      13.86935244      14.17982587      -2.190E-02      1.80    <-- DIS
     200      13.86935244      14.17982587      -2.190E-02      1.81    <-- DIS
     201      13.86935244      14.17982587      -2.190E-02      1.82    <-- DIS
     202      13.86935244      14.17982587      -2.190E-02      1.82    <-- DIS
     203      13.86935244      14.17982587      -2.190E-02      1.83    <-- DIS
     204      13.86935244      14.17982587      -2.190E-02      1.84    <-- DIS
     205      13.86935244      14.17982587      -2.190E-02      1.85    <-- DIS
     206      13.86935244      14.17982587      -2.190E-02      1.86    <-- DIS
     207      13.86935244      14.17982587      -2.190E-02      1.87    <-- DIS
     208      13.86935244      14.17982587      -2.190E-02      1.88    <-- DIS
     209      13.86935244      14.17982587      -2.190E-02      1.89    <-- DIS
     210      13.86935244      14.17982587      -2.190E-02      1.90    <-- DIS
     211      13.86935244      14.17982587      -2.190E-02      1.90    <-- DIS
     212      13.86935244      14.17982587      -2.190E-02      1.91    <-- DIS
     213      13.86935244      14.17982587      -2.190E-02      1.92    <-- DIS
     214      13.86935244      14.17982587      -2.190E-02      1.93    <-- DIS
     215      13.86935244      14.17982587      -2.190E-02      1.94    <-- DIS
     216      13.86935244      14.17982587      -2.190E-02      1.95    <-- DIS
     217      13.86935244      14.17982587      -2.190E-02      1.96    <-- DIS
     218      13.86935244      14.17982587      -2.190E-02      1.97    <-- DIS
     219      13.86935244      14.17982587      -2.190E-02      1.98    <-- DIS
     220      13.86935244      14.17982587      -2.190E-02      1.99    <-- DIS
     221      13.86935244      14.17982587      -2.190E-02      2.00    <-- DIS
     222      13.86935244      14.17982587      -2.190E-02      2.01    <-- DIS
     223      13.86935244      14.17982587      -2.190E-02      2.02    <-- DIS
     224      13.86935244      14.17982587      -2.190E-02      2.03    <-- DIS
     225      13.86935244      14.17982587      -2.190E-02      2.04    <-- DIS
     226      13.86935244      14.17982587      -2.190E-02      2.04    <-- DIS
     227      13.86935244      14.17982587      -2.190E-02      2.05    <-- DIS
     228      13.86935244      14.17982587      -2.190E-02      2.06    <-- DIS
     229      13.86935244      14.17982587      -2.190E-02      2.07    <-- DIS
     230      13.86935244      14.17982587      -2.190E-02      2.08    <-- DIS
     231      13.86935244      14.17982587      -2.190E-02      2.09    <-- DIS
     232      13.86935244      14.17982587      -2.190E-02      2.10    <-- DIS
     233      13.86935244      14.17982587      -2.190E-02      2.11    <-- DIS
     234      13.86935244      14.17982587      -2.190E-02      2.12    <-- DIS
     235      13.86935244      14.17982587      -2.190E-02      2.13    <-- DIS
     236      13.86935244      14.17982587      -2.190E-02      2.13    <-- DIS
     237      13.86935244      14.17982587      -2.190E-02      2.14    <-- DIS
     238      13.86935244      14.17982587      -2.190E-02      2.15    <-- DIS
     239      13.86935244      14.17982587      -2.190E-02      2.16    <-- DIS
     240      13.86935244      14.17982587      -2.190E-02      2.17    <-- DIS
     241      13.86935244      14.17982587      -2.190E-02      2.18    <-- DIS
     242      13.86935244      14.17982587      -2.190E-02      2.19    <-- DIS
     243      13.86935244      14.17982587      -2.190E-02      2.20    <-- DIS
     244      13.86935244      14.17982587      -2.190E-02      2.21    <-- DIS
     245      13.86935244      14.17982587      -2.190E-02      2.22    <-- DIS
     246      13.86935244      14.17982587      -2.190E-02      2.22    <-- DIS
     247      13.86935244      14.17982587      -2.190E-02      2.23    <-- DIS
     248      13.86935244      14.17982587      -2.190E-02      2.24    <-- DIS
     249      13.86935244      14.17982587      -2.190E-02      2.25    <-- DIS
     250      13.86935244      14.17982587      -2.190E-02      2.26    <-- DIS
     251      13.86935244      14.17982587      -2.190E-02      2.27    <-- DIS
     252      13.86935244      14.17982587      -2.190E-02      2.28    <-- DIS
     253      13.86935244      14.17982587      -2.190E-02      2.29    <-- DIS
     254      13.86935244      14.17982587      -2.190E-02      2.30    <-- DIS
     255      13.86935244      14.17982587      -2.190E-02      2.31    <-- DIS
     256      13.86935244      14.17982587      -2.190E-02      2.32    <-- DIS
     257      13.86935244      14.17982587      -2.190E-02      2.32    <-- DIS
     258      13.86935244      14.17982587      -2.190E-02      2.33    <-- DIS
     259      13.86935244      14.17982587      -2.190E-02      2.34    <-- DIS
     260      13.86935244      14.17982587      -2.190E-02      2.35    <-- DIS
     261      13.86935244      14.17982587      -2.190E-02      2.36    <-- DIS
     262      13.86935244      14.17982587      -2.190E-02      2.37    <-- DIS
     263      13.86935244      14.17982587      -2.190E-02      2.38    <-- DIS
     264      13.86935244      14.17982587      -2.190E-02      2.39    <-- DIS
     265      13.86935244      14.17982587      -2.190E-02      2.40    <-- DIS
     266      13.86935244      14.17982587      -2.190E-02      2.41    <-- DIS
     267      13.86935244      14.17982587      -2.190E-02      2.41    <-- DIS
     268      13.86935244      14.17982587      -2.190E-02      2.42    <-- DIS
     269      13.86935244      14.17982587      -2.190E-02      2.43    <-- DIS
     270      13.86935244      14.17982587      -2.190E-02      2.44    <-- DIS
     271      13.86935244      14.17982587      -2.190E-02      2.45    <-- DIS
     272      13.86935244      14.17982587      -2.190E-02      2.46    <-- DIS
     273      13.86935244      14.17982587      -2.190E-02      2.47    <-- DIS
     274      13.86935244      14.17982587      -2.190E-02      2.48    <-- DIS
     275      13.86935244      14.17982587      -2.190E-02      2.49    <-- DIS
     276      13.86935244      14.17982587      -2.190E-02      2.50    <-- DIS
     277      13.86935244      14.17982587      -2.190E-02      2.51    <-- DIS
     278      13.86935244      14.17982587      -2.190E-02      2.52    <-- DIS
     279      13.86935244      14.17982587      -2.190E-02      2.53    <-- DIS
     280      13.86935244      14.17982587      -2.190E-02      2.53    <-- DIS
     281      13.86935244      14.17982587      -2.190E-02      2.54    <-- DIS
     282      13.86935244      14.17982587      -2.190E-02      2.55    <-- DIS
     283      13.86935244      14.17982587      -2.190E-02      2.56    <-- DIS
     284      13.86935244      14.17982587      -2.190E-02      2.57    <-- DIS
     285      13.86935244      14.17982587      -2.190E-02      2.58    <-- DIS
     286      13.86935244      14.17982587      -2.190E-02      2.59    <-- DIS
     287      13.86935244      14.17982587      -2.190E-02      2.60    <-- DIS
     288      13.86935244      14.17982587      -2.190E-02      2.61    <-- DIS
     289      13.86935244      14.17982587      -2.190E-02      2.62    <-- DIS
     290      13.86935244      14.17982587      -2.190E-02      2.62    <-- DIS
     291      13.86935244      14.17982587      -2.190E-02      2.63    <-- DIS
     292      13.86935244      14.17982587      -2.190E-02      2.64    <-- DIS
     293      13.86935244      14.17982587      -2.190E-02      2.65    <-- DIS
     294      13.86935244      14.17982587      -2.190E-02      2.66    <-- DIS
     295      13.86935244      14.17982587      -2.190E-02      2.67    <-- DIS
     296      13.86935244      14.17982587      -2.190E-02      2.68    <-- DIS
     297      13.86935244      14.17982587      -2.190E-02      2.69    <-- DIS
     298      13.86935244      14.17982587      -2.190E-02      2.70    <-- DIS
     299      13.86935244      14.17982587      -2.190E-02      2.70    <-- DIS
     300      13.86935244      14.17982587      -2.190E-02      2.71    <-- DIS
     301      13.86935244      14.17982587      -2.190E-02      2.72    <-- DIS
     302      13.86935244      14.17982587      -2.190E-02      2.73    <-- DIS
     303      13.86935244      14.17982587      -2.190E-02      2.74    <-- DIS
     304      13.86935244      14.17982587      -2.190E-02      2.75    <-- DIS
     305      13.86935244      14.17982587      -2.190E-02      2.76    <-- DIS
     306      13.86935244      14.17982587      -2.190E-02      2.77    <-- DIS
     307      13.86935244      14.17982587      -2.190E-02      2.78    <-- DIS
     308      13.86935244      14.17982587      -2.190E-02      2.79    <-- DIS
     309      13.86935244      14.17982587      -2.190E-02      2.80    <-- DIS
     310      13.86935244      14.17982587      -2.190E-02      2.81    <-- DIS
     311      13.86935244      14.17982587      -2.190E-02      2.81    <-- DIS
     312      13.86935244      14.17982587      -2.190E-02      2.82    <-- DIS
     313      13.86935244      14.17982587      -2.190E-02      2.83    <-- DIS
     314      13.86935244      14.17982587      -2.190E-02      2.84    <-- DIS
     315      13.86935244      14.17982587      -2.190E-02      2.85    <-- DIS
     316      13.86935244      14.17982587      -2.190E-02      2.86    <-- DIS
     317      13.86935244      14.17982587      -2.190E-02      2.87    <-- DIS
     318      13.86935244      14.17982587      -2.190E-02      2.88    <-- DIS
     319      13.86935244      14.17982587      -2.190E-02      2.89    <-- DIS
     320      13.86935244      14.17982587      -2.190E-02      2.89    <-- DIS
     321      13.86935244      14.17982587      -2.190E-02      2.90    <-- DIS
     322      13.86935244      14.17982587      -2.190E-02      2.91    <-- DIS
     323      13.86935244      14.17982587      -2.190E-02      2.92    <-- DIS
     324      13.86935244      14.17982587      -2.190E-02      2.93    <-- DIS
     325      13.86935244      14.17982587      -2.190E-02      2.94    <-- DIS
     326      13.86935244      14.17982587      -2.190E-02      2.95    <-- DIS
     327      13.86935244      14.17982587      -2.190E-02      2.96    <-- DIS
     328      13.86935244      14.17982587      -2.190E-02      2.97    <-- DIS
     329      13.86935244      14.17982587      -2.190E-02      2.98    <-- DIS
     330      13.86935244      14.17982587      -2.190E-02      2.99    <-- DIS
     331      13.86935244      14.17982587      -2.190E-02      3.00    <-- DIS
     332      13.86935244      14.17982587      -2.190E-02      3.01    <-- DIS
     333      13.86935244      14.17982587      -2.190E-02      3.01    <-- DIS
     334      13.86935244      14.17982587      -2.190E-02      3.02    <-- DIS
     335      13.86935244      14.17982587      -2.190E-02      3.03    <-- DIS
     336      13.86935244      14.17982587      -2.190E-02      3.04    <-- DIS
     337      13.86935244      14.17982587      -2.190E-02      3.05    <-- DIS
     338      13.86935244      14.17982587      -2.190E-02      3.06    <-- DIS
     339      13.86935244      14.17982587      -2.190E-02      3.07    <-- DIS
     340      13.86935244      14.17982587      -2.190E-02      3.08    <-- DIS
     341      13.86935244      14.17982587      -2.190E-02      3.09    <-- DIS
     342      13.86935244      14.17982587      -2.190E-02      3.10    <-- DIS
     343      13.86935244      14.17982587      -2.190E-02      3.10    <-- DIS
     344      13.86935244      14.17982587      -2.190E-02      3.11    <-- DIS
     345      13.86935244      14.17982587      -2.190E-02      3.12    <-- DIS
     346      13.86935244      14.17982587      -2.190E-02      3.13    <-- DIS
     347      13.86935244      14.17982587      -2.190E-02      3.14    <-- DIS
     348      13.86935244      14.17982587      -2.190E-02      3.15    <-- DIS
     349      13.86935244      14.17982587      -2.190E-02      3.16    <-- DIS
     350      13.86935244      14.17982587      -2.190E-02      3.17    <-- DIS
     351      13.86935244      14.17982587      -2.190E-02      3.18    <-- DIS
     352      13.86935244      14.17982587      -2.190E-02      3.18    <-- DIS
     353      13.86935244      14.17982587      -2.190E-02      3.19    <-- DIS
     354      13.86935244      14.17982587      -2.190E-02      3.20    <-- DIS
     355      13.86935244      14.17982587      -2.190E-02      3.21    <-- DIS
     356      13.86935244      14.17982587      -2.190E-02      3.22    <-- DIS
     357      13.86935244      14.17982587      -2.190E-02      3.23    <-- DIS
     358      13.86935244      14.17982587      -2.190E-02      3.24    <-- DIS
     359      13.86935244      14.17982587      -2.190E-02      3.25    <-- DIS
     360      13.86935244      14.17982587      -2.190E-02      3.26    <-- DIS
     361      13.86935244      14.17982587      -2.190E-02      3.27    <-- DIS
     362      13.86935244      14.17982587      -2.190E-02      3.28    <-- DIS
     363      13.86935244      14.17982587      -2.190E-02      3.29    <-- DIS
     364      13.86935244      14.17982587      -2.190E-02      3.29    <-- DIS
     365      13.86935244      14.17982587      -2.190E-02      3.30    <-- DIS
     366      13.86935244      14.17982587      -2.190E-02      3.31    <-- DIS
     367      13.86935244      14.17982587      -2.190E-02      3.32    <-- DIS
     368      13.86935244      14.17982587      -2.190E-02      3.33    <-- DIS
     369      13.86935244      14.17982587      -2.190E-02      3.34    <-- DIS
     370      13.86935244      14.17982587      -2.190E-02      3.35    <-- DIS
     371      13.86935244      14.17982587      -2.190E-02      3.36    <-- DIS
     372      13.86935244      14.17982587      -2.190E-02      3.37    <-- DIS
     373      13.86935244      14.17982587      -2.190E-02      3.38    <-- DIS
     374      13.86935244      14.17982587      -2.190E-02      3.38    <-- DIS
     375      13.86935244      14.17982587      -2.190E-02      3.39    <-- DIS
     376      13.86935244      14.17982587      -2.190E-02      3.40    <-- DIS
     377      13.86935244      14.17982587      -2.190E-02      3.41    <-- DIS
     378      13.86935244      14.17982587      -2.190E-02      3.42    <-- DIS
     379      13.86935244      14.17982587      -2.190E-02      3.43    <-- DIS
     380      13.86935244      14.17982587      -2.190E-02      3.44    <-- DIS
     381      13.86935244      14.17982587      -2.190E-02      3.45    <-- DIS
     382      13.86935244      14.17982587      -2.190E-02      3.46    <-- DIS
     383      13.86935244      14.17982587      -2.190E-02      3.47    <-- DIS
     384      13.86935244      14.17982587      -2.190E-02      3.48    <-- DIS
     385      13.86935244      14.17982587      -2.190E-02      3.49    <-- DIS
     386      13.86935244      14.17982587      -2.190E-02      3.49    <-- DIS
     387      13.86935244      14.17982587      -2.190E-02      3.50    <-- DIS
     388      13.86935244      14.17982587      -2.190E-02      3.51    <-- DIS
     389      13.86935244      14.17982587      -2.190E-02      3.52    <-- DIS
     390      13.86935244      14.17982587      -2.190E-02      3.53    <-- DIS
     391      13.86935244      14.17982587      -2.190E-02      3.54    <-- DIS
     392      13.86935244      14.17982587      -2.190E-02      3.55    <-- DIS
     393      13.86935244      14.17982587      -2.190E-02      3.56    <-- DIS
     394      13.86935244      14.17982587      -2.190E-02      3.57    <-- DIS
     395      13.86935244      14.17982587      -2.190E-02      3.58    <-- DIS
     396      13.86935244      14.17982587      -2.190E-02      3.59    <-- DIS
     397      13.86935244      14.17982587      -2.190E-02      3.59    <-- DIS
     398      13.86935244      14.17982587      -2.190E-02      3.60    <-- DIS
     399      13.86935244      14.17982587      -2.190E-02      3.61    <-- DIS
     400      13.86935244      14.17982587      -2.190E-02      3.62    <-- DIS
     401      13.86935244      14.17982587      -2.190E-02      3.63    <-- DIS
     402      13.86935244      14.17982587      -2.190E-02      3.64    <-- DIS
     403      13.86935244      14.17982587      -2.190E-02      3.65    <-- DIS
     404      13.86935244      14.17982587      -2.190E-02      3.66    <-- DIS
     405      13.86935244      14.17982587      -2.190E-02      3.67    <-- DIS
     406      13.86935244      14.17982587      -2.190E-02      3.67    <-- DIS
     407      13.86935244      14.17982587      -2.190E-02      3.68    <-- DIS
     408      13.86935244      14.17982587      -2.190E-02      3.69    <-- DIS
     409      13.86935244      14.17982587      -2.190E-02      3.70    <-- DIS
     410      13.86935244      14.17982587      -2.190E-02      3.71    <-- DIS
     411      13.86935244      14.17982587      -2.190E-02      3.72    <-- DIS
     412      13.86935244      14.17982587      -2.190E-02      3.73    <-- DIS
     413      13.86935244      14.17982587      -2.190E-02      3.74    <-- DIS
     414      13.86935244      14.17982587      -2.190E-02      3.75    <-- DIS
     415      13.86935244      14.17982587      -2.190E-02      3.76    <-- DIS
     416      13.86935244      14.17982587      -2.190E-02      3.77    <-- DIS
     417      13.86935244      14.17982587      -2.190E-02      3.77    <-- DIS
     418      13.86935244      14.17982587      -2.190E-02      3.78    <-- DIS
     419      13.86935244      14.17982587      -2.190E-02      3.79    <-- DIS
     420      13.86935244      14.17982587      -2.190E-02      3.80    <-- DIS
     421      13.86935244      14.17982587      -2.190E-02      3.81    <-- DIS
     422      13.86935244      14.17982587      -2.190E-02      3.82    <-- DIS
     423      13.86935244      14.17982587      -2.190E-02      3.83    <-- DIS
     424      13.86935244      14.17982587      -2.190E-02      3.84    <-- DIS
     425      13.86935244      14.17982587      -2.190E-02      3.85    <-- DIS
     426      13.86935244      14.17982587      -2.190E-02      3.86    <-- DIS
     427      13.86935244      14.17982587      -2.190E-02      3.87    <-- DIS
     428      13.86935244      14.17982587      -2.190E-02      3.87    <-- DIS
     429      13.86935244      14.17982587      -2.190E-02      3.88    <-- DIS
     430      13.86935244      14.17982587      -2.190E-02      3.89    <-- DIS
     431      13.86935244      14.17982587      -2.190E-02      3.90    <-- DIS
     432      13.86935244      14.17982587      -2.190E-02      3.91    <-- DIS
     433      13.86935244      14.17982587      -2.190E-02      3.92    <-- DIS
     434      13.86935244      14.17982587      -2.190E-02      3.93    <-- DIS
     435      13.86935244      14.17982587      -2.190E-02      3.94    <-- DIS
     436      13.86935244      14.17982587      -2.190E-02      3.95    <-- DIS
     437      13.86935244      14.17982587      -2.190E-02      3.96    <-- DIS
     438      13.86935244      14.17982587      -2.190E-02      3.96    <-- DIS
     439      13.86935244      14.17982587      -2.190E-02      3.97    <-- DIS
     440      13.86935244      14.17982587      -2.190E-02      3.98    <-- DIS
     441      13.86935244      14.17982587      -2.190E-02      3.99    <-- DIS
     442      13.86935244      14.17982587      -2.190E-02      4.00    <-- DIS
     443      13.86935244      14.17982587      -2.190E-02      4.01    <-- DIS
     444      13.86935244      14.17982587      -2.190E-02      4.02    <-- DIS
     445      13.86935244      14.17982587      -2.190E-02      4.03    <-- DIS
     446      13.86935244      14.17982587      -2.190E-02      4.04    <-- DIS
     447      13.86935244      14.17982587      -2.190E-02      4.05    <-- DIS
     448      13.86935244      14.17982587      -2.190E-02      4.06    <-- DIS
     449      13.86935244      14.17982587      -2.190E-02      4.07    <-- DIS
     450      13.86935244      14.17982587      -2.190E-02      4.07    <-- DIS
     451      13.86935244      14.17982587      -2.190E-02      4.08    <-- DIS
     452      13.86935244      14.17982587      -2.190E-02      4.09    <-- DIS
     453      13.86935244      14.17982587      -2.190E-02      4.10    <-- DIS
     454      13.86935244      14.17982587      -2.190E-02      4.11    <-- DIS
     455      13.86935244      14.17982587      -2.190E-02      4.12    <-- DIS
     456      13.86935244      14.17982587      -2.190E-02      4.13    <-- DIS
     457      13.86935244      14.17982587      -2.190E-02      4.14    <-- DIS
     458      13.86935244      14.17982587      -2.190E-02      4.15    <-- DIS
     459      13.86935244      14.17982587      -2.190E-02      4.16    <-- DIS
     460      13.86935244      14.17982587      -2.190E-02      4.16    <-- DIS
     461      13.86935244      14.17982587      -2.190E-02      4.17    <-- DIS
     462      13.86935244      14.17982587      -2.190E-02      4.18    <-- DIS
     463      13.86935244      14.17982587      -2.190E-02      4.19    <-- DIS
     464      13.86935244      14.17982587      -2.190E-02      4.20    <-- DIS
     465      13.86935244      14.17982587      -2.190E-02      4.21    <-- DIS
     466      13.86935244      14.17982587      -2.190E-02      4.22    <-- DIS
     467      13.86935244      14.17982587      -2.190E-02      4.23    <-- DIS
     468      13.86935244      14.17982587      -2.190E-02      4.24    <-- DIS
     469      13.86935244      14.17982587      -2.190E-02      4.25    <-- DIS
     470      13.86935244      14.17982587      -2.190E-02      4.26    <-- DIS
     471      13.86935244      14.17982587      -2.190E-02      4.26    <-- DIS
     472      13.86935244      14.17982587      -2.190E-02      4.27    <-- DIS
     473      13.86935244      14.17982587      -2.190E-02      4.28    <-- DIS
     474      13.86935244      14.17982587      -2.190E-02      4.29    <-- DIS
     475      13.86935244      14.17982587      -2.190E-02      4.30    <-- DIS
     476      13.86935244      14.17982587      -2.190E-02      4.31    <-- DIS
     477      13.86935244      14.17982587      -2.190E-02      4.32    <-- DIS
     478      13.86935244      14.17982587      -2.190E-02      4.33    <-- DIS
     479      13.86935244      14.17982587      -2.190E-02      4.34    <-- DIS
     480      13.86935244      14.17982587      -2.190E-02      4.35    <-- DIS
     481      13.86935244      14.17982587      -2.190E-02      4.36    <-- DIS
     482      13.86935244      14.17982587      -2.190E-02      4.36    <-- DIS
     483      13.86935244      14.17982587      -2.190E-02      4.37    <-- DIS
     484      13.86935244      14.17982587      -2.190E-02      4.38    <-- DIS
     485      13.86935244      14.17982587      -2.190E-02      4.39    <-- DIS
     486      13.86935244      14.17982587      -2.190E-02      4.40    <-- DIS
     487      13.86935244      14.17982587      -2.190E-02      4.41    <-- DIS
     488      13.86935244      14.17982587      -2.190E-02      4.42    <-- DIS
     489      13.86935244      14.17982587      -2.190E-02      4.43    <-- DIS
     490      13.86935244      14.17982587      -2.190E-02      4.44    <-- DIS
     491      13.86935244      14.17982587      -2.190E-02      4.45    <-- DIS
     492      13.86935244      14.17982587      -2.190E-02      4.46    <-- DIS
     493      13.86935244      14.17982587      -2.190E-02      4.47    <-- DIS
     494      13.86935244      14.17982587      -2.190E-02      4.47    <-- DIS
     495      13.86935244      14.17982587      -2.190E-02      4.48    <-- DIS
     496      13.86935244      14.17982587      -2.190E-02      4.49    <-- DIS
     497      13.86935244      14.17982587      -2.190E-02      4.50    <-- DIS
     498      13.86935244      14.17982587      -2.190E-02      4.51    <-- DIS
     499      13.86935244      14.17982587      -2.190E-02      4.52    <-- DIS
     500      13.86935244      14.17982587      -2.190E-02      4.53    <-- DIS
     501      13.86935244      14.17982587      -2.190E-02      4.54    <-- DIS
     502      13.86935244      14.17982587      -2.190E-02      4.55    <-- DIS
     503      13.86935244      14.17982587      -2.190E-02      4.56    <-- DIS
     504      13.86935244      14.17982587      -2.190E-02      4.57    <-- DIS
     505      13.86935244      14.17982587      -2.190E-02      4.58    <-- DIS
     506      13.86935244      14.17982587      -2.190E-02      4.59    <-- DIS
     507      13.86935244      14.17982587      -2.190E-02      4.59    <-- DIS
     508      13.86935244      14.17982587      -2.190E-02      4.60    <-- DIS
     509      13.86935244      14.17982587      -2.190E-02      4.61    <-- DIS
     510      13.86935244      14.17982587      -2.190E-02      4.62    <-- DIS
     511      13.86935244      14.17982587      -2.190E-02      4.63    <-- DIS
     512      13.86935244      14.17982587      -2.190E-02      4.64    <-- DIS
     513      13.86935244      14.17982587      -2.190E-02      4.65    <-- DIS
     514      13.86935244      14.17982587      -2.190E-02      4.66    <-- DIS
     515      13.86935244      14.17982587      -2.190E-02      4.67    <-- DIS
     516      13.86935244      14.17982587      -2.190E-02      4.68    <-- DIS
     517      13.86935244      14.17982587      -2.190E-02      4.69    <-- DIS
     518      13.86935244      14.17982587      -2.190E-02      4.70    <-- DIS
     519      13.86935244      14.17982587      -2.190E-02      4.71    <-- DIS
     520      13.86935244      14.17982587      -2.190E-02      4.72    <-- DIS
     521      13.86935244      14.17982587      -2.190E-02      4.72    <-- DIS
     522      13.86935244      14.17982587      -2.190E-02      4.73    <-- DIS
     523      13.86935244      14.17982587      -2.190E-02      4.74    <-- DIS
     524      13.86935244      14.17982587      -2.190E-02      4.75    <-- DIS
     525      13.86935244      14.17982587      -2.190E-02      4.76    <-- DIS
     526      13.86935244      14.17982587      -2.190E-02      4.77    <-- DIS
     527      13.86935244      14.17982587      -2.190E-02      4.78    <-- DIS
     528      13.86935244      14.17982587      -2.190E-02      4.79    <-- DIS
     529      13.86935244      14.17982587      -2.190E-02      4.80    <-- DIS
     530      13.86935244      14.17982587      -2.190E-02      4.81    <-- DIS
     531      13.86935244      14.17982587      -2.190E-02      4.82    <-- DIS
     532      13.86935244      14.17982587      -2.190E-02      4.83    <-- DIS
     533      13.86935244      14.17982587      -2.190E-02      4.84    <-- DIS
     534      13.86935244      14.17982587      -2.190E-02      4.84    <-- DIS
     535      13.86935244      14.17982587      -2.190E-02      4.86    <-- DIS
     536      13.86935244      14.17982587      -2.190E-02      4.86    <-- DIS
     537      13.86935244      14.17982587      -2.190E-02      4.87    <-- DIS
     538      13.86935244      14.17982587      -2.190E-02      4.88    <-- DIS
     539      13.86935244      14.17982587      -2.190E-02      4.89    <-- DIS
     540      13.86935244      14.17982587      -2.190E-02      4.90    <-- DIS
     541      13.86935244      14.17982587      -2.190E-02      4.91    <-- DIS
     542      13.86935244      14.17982587      -2.190E-02      4.92    <-- DIS
     543      13.86935244      14.17982587      -2.190E-02      4.93    <-- DIS
     544      13.86935244      14.17982587      -2.190E-02      4.94    <-- DIS
     545      13.86935244      14.17982587      -2.190E-02      4.95    <-- DIS
     546      13.86935244      14.17982587      -2.190E-02      4.96    <-- DIS
     547      13.86935244      14.17982587      -2.190E-02      4.97    <-- DIS
     548      13.86935244      14.17982587      -2.190E-02      4.97    <-- DIS
     549      13.86935244      14.17982587      -2.190E-02      4.98    <-- DIS
     550      13.86935244      14.17982587      -2.190E-02      4.99    <-- DIS
     551      13.86935244      14.17982587      -2.190E-02      5.00    <-- DIS
     552      13.86935244      14.17982587      -2.190E-02      5.01    <-- DIS
     553      13.86935244      14.17982587      -2.190E-02      5.02    <-- DIS
     554      13.86935244      14.17982587      -2.190E-02      5.03    <-- DIS
     555      13.86935244      14.17982587      -2.190E-02      5.04    <-- DIS
     556      13.86935244      14.17982587      -2.190E-02      5.05    <-- DIS
     557      13.86935244      14.17982587      -2.190E-02      5.06    <-- DIS
     558      13.86935244      14.17982587      -2.190E-02      5.07    <-- DIS
     559      13.86935244      14.17982587      -2.190E-02      5.07    <-- DIS
     560      13.86935244      14.17982587      -2.190E-02      5.08    <-- DIS
     561      13.86935244      14.17982587      -2.190E-02      5.09    <-- DIS
     562      13.86935244      14.17982587      -2.190E-02      5.10    <-- DIS
     563      13.86935244      14.17982587      -2.190E-02      5.11    <-- DIS
     564      13.86935244      14.17982587      -2.190E-02      5.12    <-- DIS
     565      13.86935244      14.17982587      -2.190E-02      5.13    <-- DIS
     566      13.86935244      14.17982587      -2.190E-02      5.14    <-- DIS
     567      13.86935244      14.17982587      -2.190E-02      5.15    <-- DIS
     568      13.86935244      14.17982587      -2.190E-02      5.16    <-- DIS
     569      13.86935244      14.17982587      -2.190E-02      5.16    <-- DIS
     570      13.86935244      14.17982587      -2.190E-02      5.18    <-- DIS
     571      13.86935244      14.17982587      -2.190E-02      5.18    <-- DIS
     572      13.86935244      14.17982587      -2.190E-02      5.19    <-- DIS
     573      13.86935244      14.17982587      -2.190E-02      5.20    <-- DIS
     574      13.86935244      14.17982587      -2.190E-02      5.21    <-- DIS
     575      13.86935244      14.17982587      -2.190E-02      5.22    <-- DIS
     576      13.86935244      14.17982587      -2.190E-02      5.23    <-- DIS
     577      13.86935244      14.17982587      -2.190E-02      5.24    <-- DIS
     578      13.86935244      14.17982587      -2.190E-02      5.25    <-- DIS
     579      13.86935244      14.17982587      -2.190E-02      5.26    <-- DIS
     580      13.86935244      14.17982587      -2.190E-02      5.26    <-- DIS
     581      13.86935244      14.17982587      -2.190E-02      5.27    <-- DIS
     582      13.86935244      14.17982587      -2.190E-02      5.28    <-- DIS
     583      13.86935244      14.17982587      -2.190E-02      5.29    <-- DIS
     584      13.86935244      14.17982587      -2.190E-02      5.30    <-- DIS
     585      13.86935244      14.17982587      -2.190E-02      5.31    <-- DIS
     586      13.86935244      14.17982587      -2.190E-02      5.32    <-- DIS
     587      13.86935244      14.17982587      -2.190E-02      5.33    <-- DIS
     588      13.86935244      14.17982587      -2.190E-02      5.34    <-- DIS
     589      13.86935244      14.17982587      -2.190E-02      5.35    <-- DIS
     590      13.86935244      14.17982587      -2.190E-02      5.36    <-- DIS
     591      13.86935244      14.17982587      -2.190E-02      5.36    <-- DIS
     592      13.86935244      14.17982587      -2.190E-02      5.37    <-- DIS
     593      13.86935244      14.17982587      -2.190E-02      5.38    <-- DIS
     594      13.86935244      14.17982587      -2.190E-02      5.39    <-- DIS
     595      13.86935244      14.17982587      -2.190E-02      5.40    <-- DIS
     596      13.86935244      14.17982587      -2.190E-02      5.41    <-- DIS
     597      13.86935244      14.17982587      -2.190E-02      5.42    <-- DIS
     598      13.86935244      14.17982587      -2.190E-02      5.43    <-- DIS
     599      13.86935244      14.17982587      -2.190E-02      5.44    <-- DIS
     600      13.86935244      14.17982587      -2.190E-02      5.45    <-- DIS
     601      13.86935244      14.17982587      -2.190E-02      5.46    <-- DIS
     602      13.86935244      14.17982587      -2.190E-02      5.47    <-- DIS
     603      13.86935244      14.17982587      -2.190E-02      5.48    <-- DIS
     604      13.86935244      14.17982587      -2.190E-02      5.49    <-- DIS
     605      13.86935244      14.17982587      -2.190E-02      5.50    <-- DIS
     606      13.86935244      14.17982587      -2.190E-02      5.51    <-- DIS
     607      13.86935244      14.17982587      -2.190E-02      5.51    <-- DIS
     608      13.86935244      14.17982587      -2.190E-02      5.52    <-- DIS
     609      13.86935244      14.17982587      -2.190E-02      5.53    <-- DIS
     610      13.86935244      14.17982587      -2.190E-02      5.54    <-- DIS
     611      13.86935244      14.17982587      -2.190E-02      5.55    <-- DIS
     612      13.86935244      14.17982587      -2.190E-02      5.56    <-- DIS
     613      13.86935244      14.17982587      -2.190E-02      5.57    <-- DIS
     614      13.86935244      14.17982587      -2.190E-02      5.58    <-- DIS
     615      13.86935244      14.17982587      -2.190E-02      5.59    <-- DIS
     616      13.86935244      14.17982587      -2.190E-02      5.60    <-- DIS
     617      13.86935244      14.17982587      -2.190E-02      5.61    <-- DIS
     618      13.86935244      14.17982587      -2.190E-02      5.61    <-- DIS
     619      13.86935244      14.17982587      -2.190E-02      5.62    <-- DIS
     620      13.86935244      14.17982587      -2.190E-02      5.63    <-- DIS
     621      13.86935244      14.17982587      -2.190E-02      5.64    <-- DIS
     622      13.86935244      14.17982587      -2.190E-02      5.65    <-- DIS
     623      13.86935244      14.17982587      -2.190E-02      5.66    <-- DIS
     624      13.86935244      14.17982587      -2.190E-02      5.67    <-- DIS
     625      13.86935244      14.17982587      -2.190E-02      5.68    <-- DIS
     626      13.86935244      14.17982587      -2.190E-02      5.69    <-- DIS
     627      13.86935244      14.17982587      -2.190E-02      5.70    <-- DIS
     628      13.86935244      14.17982587      -2.190E-02      5.70    <-- DIS
     629      13.86935244      14.17982587      -2.190E-02      5.71    <-- DIS
     630      13.86935244      14.17982587      -2.190E-02      5.72    <-- DIS
     631      13.86935244      14.17982587      -2.190E-02      5.73    <-- DIS
     632      13.86935244      14.17982587      -2.190E-02      5.74    <-- DIS
     633      13.86935244      14.17982587      -2.190E-02      5.75    <-- DIS
     634      13.86935244      14.17982587      -2.190E-02      5.76    <-- DIS
     635      13.86935244      14.17982587      -2.190E-02      5.77    <-- DIS
     636      13.86935244      14.17982587      -2.190E-02      5.78    <-- DIS
     637      13.86935244      14.17982587      -2.190E-02      5.79    <-- DIS
     638      13.86935244      14.17982587      -2.190E-02      5.80    <-- DIS
     639      13.86935244      14.17982587      -2.190E-02      5.80    <-- DIS
     640      13.86935244      14.17982587      -2.190E-02      5.81    <-- DIS
     641      13.86935244      14.17982587      -2.190E-02      5.82    <-- DIS
     642      13.86935244      14.17982587      -2.190E-02      5.83    <-- DIS
     643      13.86935244      14.17982587      -2.190E-02      5.84    <-- DIS
     644      13.86935244      14.17982587      -2.190E-02      5.85    <-- DIS
     645      13.86935244      14.17982587      -2.190E-02      5.86    <-- DIS
     646      13.86935244      14.17982587      -2.190E-02      5.87    <-- DIS
     647      13.86935244      14.17982587      -2.190E-02      5.88    <-- DIS
     648      13.86935244      14.17982587      -2.190E-02      5.89    <-- DIS
     649      13.86935244      14.17982587      -2.190E-02      5.89    <-- DIS
     650      13.86935244      14.17982587      -2.190E-02      5.90    <-- DIS
     651      13.86935244      14.17982587      -2.190E-02      5.91    <-- DIS
     652      13.86935244      14.17982587      -2.190E-02      5.92    <-- DIS
     653      13.86935244      14.17982587      -2.190E-02      5.93    <-- DIS
     654      13.86935244      14.17982587      -2.190E-02      5.94    <-- DIS
     655      13.86935244      14.17982587      -2.190E-02      5.95    <-- DIS
     656      13.86935244      14.17982587      -2.190E-02      5.96    <-- DIS
     657      13.86935244      14.17982587      -2.190E-02      5.97    <-- DIS
     658      13.86935244      14.17982587      -2.190E-02      5.98    <-- DIS
     659      13.86935244      14.17982587      -2.190E-02      5.99    <-- DIS
     660      13.86935244      14.17982587      -2.190E-02      6.00    <-- DIS
     661      13.86935244      14.17982587      -2.190E-02      6.01    <-- DIS
     662      13.86935244      14.17982587      -2.190E-02      6.01    <-- DIS
     663      13.86935244      14.17982587      -2.190E-02      6.02    <-- DIS
     664      13.86935244      14.17982587      -2.190E-02      6.03    <-- DIS
     665      13.86935244      14.17982587      -2.190E-02      6.04    <-- DIS
     666      13.86935244      14.17982587      -2.190E-02      6.05    <-- DIS
     667      13.86935244      14.17982587      -2.190E-02      6.06    <-- DIS
     668      13.86935244      14.17982587      -2.190E-02      6.07    <-- DIS
     669      13.86935244      14.17982587      -2.190E-02      6.08    <-- DIS
     670      13.86935244      14.17982587      -2.190E-02      6.09    <-- DIS
     671      13.86935244      14.17982587      -2.190E-02      6.10    <-- DIS
     672      13.86935244      14.17982587      -2.190E-02      6.11    <-- DIS
     673      13.86935244      14.17982587      -2.190E-02      6.11    <-- DIS
     674      13.86935244      14.17982587      -2.190E-02      6.12    <-- DIS
     675      13.86935244      14.17982587      -2.190E-02      6.13    <-- DIS
     676      13.86935244      14.17982587      -2.190E-02      6.14    <-- DIS
     677      13.86935244      14.17982587      -2.190E-02      6.15    <-- DIS
     678      13.86935244      14.17982587      -2.190E-02      6.16    <-- DIS
     679      13.86935244      14.17982587      -2.190E-02      6.17    <-- DIS
     680      13.86935244      14.17982587      -2.190E-02      6.18    <-- DIS
     681      13.86935244      14.17982587      -2.190E-02      6.19    <-- DIS
     682      13.86935244      14.17982587      -2.190E-02      6.20    <-- DIS
     683      13.86935244      14.17982587      -2.190E-02      6.20    <-- DIS
     684      13.86935244      14.17982587      -2.190E-02      6.21    <-- DIS
     685      13.86935244      14.17982587      -2.190E-02      6.22    <-- DIS
     686      13.86935244      14.17982587      -2.190E-02      6.23    <-- DIS
     687      13.86935244      14.17982587      -2.190E-02      6.24    <-- DIS
     688      13.86935244      14.17982587      -2.190E-02      6.25    <-- DIS
     689      13.86935244      14.17982587      -2.190E-02      6.26    <-- DIS
     690      13.86935244      14.17982587      -2.190E-02      6.27    <-- DIS
     691      13.86935244      14.17982587      -2.190E-02      6.28    <-- DIS
     692      13.86935244      14.17982587      -2.190E-02      6.29    <-- DIS
     693      13.86935244      14.17982587      -2.190E-02      6.30    <-- DIS
     694      13.86935244      14.17982587      -2.190E-02      6.31    <-- DIS
     695      13.86935244      14.17982587      -2.190E-02      6.32    <-- DIS
     696      13.86935244      14.17982587      -2.190E-02      6.32    <-- DIS
     697      13.86935244      14.17982587      -2.190E-02      6.33    <-- DIS
     698      13.86935244      14.17982587      -2.190E-02      6.34    <-- DIS
     699      13.86935244      14.17982587      -2.190E-02      6.35    <-- DIS
     700      13.86935244      14.17982587      -2.190E-02      6.36    <-- DIS
     701      13.86935244      14.17982587      -2.190E-02      6.37    <-- DIS
     702      13.86935244      14.17982587      -2.190E-02      6.38    <-- DIS
     703      13.86935244      14.17982587      -2.190E-02      6.39    <-- DIS
     704      13.86935244      14.17982587      -2.190E-02      6.40    <-- DIS
     705      13.86935244      14.17982587      -2.190E-02      6.41    <-- DIS
     706      13.86935244      14.17982587      -2.190E-02      6.41    <-- DIS
     707      13.86935244      14.17982587      -2.190E-02      6.42    <-- DIS
     708      13.86935244      14.17982587      -2.190E-02      6.43    <-- DIS
     709      13.86935244      14.17982587      -2.190E-02      6.44    <-- DIS
     710      13.86935244      14.17982587      -2.190E-02      6.45    <-- DIS
     711      13.86935244      14.17982587      -2.190E-02      6.46    <-- DIS
     712      13.86935244      14.17982587      -2.190E-02      6.47    <-- DIS
     713      13.86935244      14.17982587      -2.190E-02      6.48    <-- DIS
     714      13.86935244      14.17982587      -2.190E-02      6.49    <-- DIS
     715      13.86935244      14.17982587      -2.190E-02      6.50    <-- DIS
     716      13.86935244      14.17982587      -2.190E-02      6.51    <-- DIS
     717      13.86935244      14.17982587      -2.190E-02      6.52    <-- DIS
     718      13.86935244      14.17982587      -2.190E-02      6.53    <-- DIS
     719      13.86935244      14.17982587      -2.190E-02      6.53    <-- DIS
     720      13.86935244      14.17982587      -2.190E-02      6.54    <-- DIS
     721      13.86935244      14.17982587      -2.190E-02      6.55    <-- DIS
     722      13.86935244      14.17982587      -2.190E-02      6.56    <-- DIS
     723      13.86935244      14.17982587      -2.190E-02      6.57    <-- DIS
     724      13.86935244      14.17982587      -2.190E-02      6.58    <-- DIS
     725      13.86935244      14.17982587      -2.190E-02      6.59    <-- DIS
     726      13.86935244      14.17982587      -2.190E-02      6.60    <-- DIS
     727      13.86935244      14.17982587      -2.190E-02      6.61    <-- DIS
     728      13.86935244      14.17982587      -2.190E-02      6.62    <-- DIS
     729      13.86935244      14.17982587      -2.190E-02      6.62    <-- DIS
     730      13.86935244      14.17982587      -2.190E-02      6.63    <-- DIS
     731      13.86935244      14.17982587      -2.190E-02      6.64    <-- DIS
     732      13.86935244      14.17982587      -2.190E-02      6.65    <-- DIS
     733      13.86935244      14.17982587      -2.190E-02      6.66    <-- DIS
     734      13.86935244      14.17982587      -2.190E-02      6.67    <-- DIS
     735      13.86935244      14.17982587      -2.190E-02      6.68    <-- DIS
     736      13.86935244      14.17982587      -2.190E-02      6.69    <-- DIS
     737      13.86935244      14.17982587      -2.190E-02      6.70    <-- DIS
     738      13.86935244      14.17982587      -2.190E-02      6.71    <-- DIS
     739      13.86935244      14.17982587      -2.190E-02      6.72    <-- DIS
     740      13.86935244      14.17982587      -2.190E-02      6.72    <-- DIS
     741      13.86935244      14.17982587      -2.190E-02      6.73    <-- DIS
     742      13.86935244      14.17982587      -2.190E-02      6.74    <-- DIS
     743      13.86935244      14.17982587      -2.190E-02      6.75    <-- DIS
     744      13.86935244      14.17982587      -2.190E-02      6.76    <-- DIS
     745      13.86935244      14.17982587      -2.190E-02      6.77    <-- DIS
     746      13.86935244      14.17982587      -2.190E-02      6.78    <-- DIS
     747      13.86935244      14.17982587      -2.190E-02      6.79    <-- DIS
     748      13.86935244      14.17982587      -2.190E-02      6.80    <-- DIS
     749      13.86935244      14.17982587      -2.190E-02      6.81    <-- DIS
     750      13.86935244      14.17982587      -2.190E-02      6.82    <-- DIS
     751      13.86935244      14.17982587      -2.190E-02      6.82    <-- DIS
     752      13.86935244      14.17982587      -2.190E-02      6.83    <-- DIS
     753      13.86935244      14.17982587      -2.190E-02      6.84    <-- DIS
     754      13.86935244      14.17982587      -2.190E-02      6.85    <-- DIS
     755      13.86935244      14.17982587      -2.190E-02      6.86    <-- DIS
     756      13.86935244      14.17982587      -2.190E-02      6.87    <-- DIS
     757      13.86935244      14.17982587      -2.190E-02      6.88    <-- DIS
     758      13.86935244      14.17982587      -2.190E-02      6.89    <-- DIS
     759      13.86935244      14.17982587      -2.190E-02      6.90    <-- DIS
     760      13.86935244      14.17982587      -2.190E-02      6.91    <-- DIS
     761      13.86935244      14.17982587      -2.190E-02      6.91    <-- DIS
     762      13.86935244      14.17982587      -2.190E-02      6.92    <-- DIS
     763      13.86935244      14.17982587      -2.190E-02      6.93    <-- DIS
     764      13.86935244      14.17982587      -2.190E-02      6.94    <-- DIS
     765      13.86935244      14.17982587      -2.190E-02      6.95    <-- DIS
     766      13.86935244      14.17982587      -2.190E-02      6.96    <-- DIS
     767      13.86935244      14.17982587      -2.190E-02      6.97    <-- DIS
     768      13.86935244      14.17982587      -2.190E-02      6.98    <-- DIS
     769      13.86935244      14.17982587      -2.190E-02      6.99    <-- DIS
     770      13.86935244      14.17982587      -2.190E-02      7.00    <-- DIS
     771      13.86935244      14.17982587      -2.190E-02      7.01    <-- DIS
     772      13.86935244      14.17982587      -2.190E-02      7.01    <-- DIS
     773      13.86935244      14.17982587      -2.190E-02      7.03    <-- DIS
     774      13.86935244      14.17982587      -2.190E-02      7.03    <-- DIS
     775      13.86935244      14.17982587      -2.190E-02      7.04    <-- DIS
     776      13.86935244      14.17982587      -2.190E-02      7.05    <-- DIS
     777      13.86935244      14.17982587      -2.190E-02      7.06    <-- DIS
     778      13.86935244      14.17982587      -2.190E-02      7.07    <-- DIS
     779      13.86935244      14.17982587      -2.190E-02      7.08    <-- DIS
     780      13.86935244      14.17982587      -2.190E-02      7.09    <-- DIS
     781      13.86935244      14.17982587      -2.190E-02      7.10    <-- DIS
     782      13.86935244      14.17982587      -2.190E-02      7.11    <-- DIS
     783      13.86935244      14.17982587      -2.190E-02      7.11    <-- DIS
     784      13.86935244      14.17982587      -2.190E-02      7.12    <-- DIS
     785      13.86935244      14.17982587      -2.190E-02      7.13    <-- DIS
     786      13.86935244      14.17982587      -2.190E-02      7.14    <-- DIS
     787      13.86935244      14.17982587      -2.190E-02      7.15    <-- DIS
     788      13.86935244      14.17982587      -2.190E-02      7.16    <-- DIS
     789      13.86935244      14.17982587      -2.190E-02      7.17    <-- DIS
     790      13.86935244      14.17982587      -2.190E-02      7.18    <-- DIS
[...]
  WF centre and spread    6  (  0.470883, -0.470052, -0.469876 )     2.84361475
  WF centre and spread    7  ( -0.470467,  0.470644, -0.469907 )     2.84356257
  WF centre and spread    8  ( -0.470360, -0.469985,  0.469969 )     2.84374549
  Sum of centres and spreads ( -5.649669,  5.654070,  5.652326 )    19.65109543

    360    -0.959E-13     0.0000005326       19.6510954332      15.26  <-- CONV
        O_D=      0.3080786 O_OD=      5.1631909 O_TOT=     19.6510954 <-- SPRD
 Delta: O_D=  0.1054712E-14 O_OD= -0.9325873E-13 O_TOT= -0.9592327E-13 <-- DLTA
 ------------------------------------------------------------------------------
 Cycle:    400
  WF centre and spread    1  ( -1.829959,  0.995952,  0.995786 )     2.07111591
  WF centre and spread    2  ( -0.995390,  0.995786,  1.830295 )     2.06914782
  WF centre and spread    3  ( -0.995281,  1.830498,  0.995507 )     2.06785719
  WF centre and spread    4  ( -1.830158,  1.830420,  1.830328 )     2.06876748
  WF centre and spread    5  (  0.471063,  0.470807,  0.470225 )     2.84328422
  WF centre and spread    6  (  0.470883, -0.470052, -0.469875 )     2.84361475
  WF centre and spread    7  ( -0.470467,  0.470644, -0.469907 )     2.84356257
  WF centre and spread    8  ( -0.470360, -0.469985,  0.469969 )     2.84374549
  Sum of centres and spreads ( -5.649669,  5.654070,  5.652326 )    19.65109543

    400    -0.604E-13     0.0000004810       19.6510954332      15.68  <-- CONV
        O_D=      0.3080786 O_OD=      5.1631909 O_TOT=     19.6510954 <-- SPRD
 Delta: O_D= -0.4996004E-15 O_OD= -0.6306067E-13 O_TOT= -0.6039613E-13 <-- DLTA
 ------------------------------------------------------------------------------

 Writing checkpoint file gaas.chk... done

 Cycle:    440
  WF centre and spread    1  ( -1.829959,  0.995952,  0.995786 )     2.07111591
  WF centre and spread    2  ( -0.995390,  0.995786,  1.830295 )     2.06914782
  WF centre and spread    3  ( -0.995281,  1.830498,  0.995507 )     2.06785719
  WF centre and spread    4  ( -1.830158,  1.830421,  1.830328 )     2.06876748
  WF centre and spread    5  (  0.471063,  0.470807,  0.470225 )     2.84328422
  WF centre and spread    6  (  0.470883, -0.470052, -0.469875 )     2.84361476
  WF centre and spread    7  ( -0.470467,  0.470644, -0.469907 )     2.84356257
  WF centre and spread    8  ( -0.470360, -0.469985,  0.469969 )     2.84374549
  Sum of centres and spreads ( -5.649669,  5.654070,  5.652326 )    19.65109543

    440     0.675E-13     0.0000004370       19.6510954332      16.09  <-- CONV
        O_D=      0.3080786 O_OD=      5.1631909 O_TOT=     19.6510954 <-- SPRD
 Delta: O_D=  0.3885781E-15 O_OD=  0.6572520E-13 O_TOT=  0.6750156E-13 <-- DLTA
 ------------------------------------------------------------------------------
 Cycle:    480
  WF centre and spread    1  ( -1.829959,  0.995952,  0.995786 )     2.07111591
  WF centre and spread    2  ( -0.995390,  0.995786,  1.830295 )     2.06914782
  WF centre and spread    3  ( -0.995281,  1.830498,  0.995507 )     2.06785719
  WF centre and spread    4  ( -1.830158,  1.830421,  1.830328 )     2.06876748
  WF centre and spread    5  (  0.471063,  0.470807,  0.470225 )     2.84328422
  WF centre and spread    6  (  0.470883, -0.470052, -0.469875 )     2.84361476
  WF centre and spread    7  ( -0.470468,  0.470644, -0.469907 )     2.84356257
  WF centre and spread    8  ( -0.470360, -0.469985,  0.469969 )     2.84374549
  Sum of centres and spreads ( -5.649669,  5.654070,  5.652326 )    19.65109543

    480     0.320E-13     0.0000003970       19.6510954332      16.58  <-- CONV
        O_D=      0.3080786 O_OD=      5.1631909 O_TOT=     19.6510954 <-- SPRD
 Delta: O_D=  0.1332268E-14 O_OD=  0.3375078E-13 O_TOT=  0.3197442E-13 <-- DLTA
 ------------------------------------------------------------------------------

 Writing checkpoint file gaas.chk... done

 Cycle:    520
  WF centre and spread    1  ( -1.829959,  0.995952,  0.995786 )     2.07111591
  WF centre and spread    2  ( -0.995390,  0.995786,  1.830295 )     2.06914782
  WF centre and spread    3  ( -0.995281,  1.830498,  0.995507 )     2.06785719
  WF centre and spread    4  ( -1.830158,  1.830421,  1.830328 )     2.06876748
  WF centre and spread    5  (  0.471063,  0.470807,  0.470225 )     2.84328422
  WF centre and spread    6  (  0.470883, -0.470052, -0.469875 )     2.84361476
  WF centre and spread    7  ( -0.470468,  0.470644, -0.469907 )     2.84356257
  WF centre and spread    8  ( -0.470360, -0.469985,  0.469969 )     2.84374549
  Sum of centres and spreads ( -5.649669,  5.654070,  5.652326 )    19.65109543

    520     0.391E-13     0.0000003682       19.6510954332      17.05  <-- CONV
        O_D=      0.3080786 O_OD=      5.1631909 O_TOT=     19.6510954 <-- SPRD
 Delta: O_D= -0.8326673E-15 O_OD=  0.4085621E-13 O_TOT=  0.3907985E-13 <-- DLTA
 ------------------------------------------------------------------------------
 Cycle:    560
  WF centre and spread    1  ( -1.829959,  0.995952,  0.995786 )     2.07111591
  WF centre and spread    2  ( -0.995390,  0.995786,  1.830295 )     2.06914782
  WF centre and spread    3  ( -0.995281,  1.830498,  0.995507 )     2.06785719
  WF centre and spread    4  ( -1.830158,  1.830421,  1.830328 )     2.06876748
  WF centre and spread    5  (  0.471063,  0.470807,  0.470225 )     2.84328422
  WF centre and spread    6  (  0.470883, -0.470052, -0.469875 )     2.84361476
  WF centre and spread    7  ( -0.470468,  0.470644, -0.469907 )     2.84356257
  WF centre and spread    8  ( -0.470360, -0.469985,  0.469969 )     2.84374549
  Sum of centres and spreads ( -5.649669,  5.654070,  5.652326 )    19.65109543

    560     0.107E-13     0.0000003418       19.6510954332      17.49  <-- CONV
        O_D=      0.3080786 O_OD=      5.1631909 O_TOT=     19.6510954 <-- SPRD
 Delta: O_D= -0.9992007E-15 O_OD=  0.1332268E-13 O_TOT=  0.1065814E-13 <-- DLTA
 ------------------------------------------------------------------------------
 Cycle:    600
  WF centre and spread    1  ( -1.829959,  0.995952,  0.995786 )     2.07111591
  WF centre and spread    2  ( -0.995390,  0.995786,  1.830295 )     2.06914782
  WF centre and spread    3  ( -0.995281,  1.830498,  0.995507 )     2.06785719
  WF centre and spread    4  ( -1.830158,  1.830421,  1.830328 )     2.06876748
  WF centre and spread    5  (  0.471063,  0.470807,  0.470225 )     2.84328422
  WF centre and spread    6  (  0.470883, -0.470052, -0.469875 )     2.84361476
  WF centre and spread    7  ( -0.470468,  0.470644, -0.469907 )     2.84356257
  WF centre and spread    8  ( -0.470360, -0.469985,  0.469969 )     2.84374549
  Sum of centres and spreads ( -5.649669,  5.654070,  5.652326 )    19.65109543

    600     0.320E-13     0.0000003174       19.6510954332      17.92  <-- CONV
        O_D=      0.3080786 O_OD=      5.1631909 O_TOT=     19.6510954 <-- SPRD
 Delta: O_D= -0.1110223E-15 O_OD=  0.3019807E-13 O_TOT=  0.3197442E-13 <-- DLTA
 ------------------------------------------------------------------------------

 Writing checkpoint file gaas.chk... done

 Cycle:    640
  WF centre and spread    1  ( -1.829959,  0.995952,  0.995786 )     2.07111591
  WF centre and spread    2  ( -0.995390,  0.995786,  1.830295 )     2.06914782
  WF centre and spread    3  ( -0.995281,  1.830498,  0.995507 )     2.06785719
  WF centre and spread    4  ( -1.830158,  1.830421,  1.830328 )     2.06876748
  WF centre and spread    5  (  0.471063,  0.470807,  0.470225 )     2.84328422
  WF centre and spread    6  (  0.470883, -0.470052, -0.469875 )     2.84361476
  WF centre and spread    7  ( -0.470468,  0.470644, -0.469907 )     2.84356257
  WF centre and spread    8  ( -0.470360, -0.469985,  0.469969 )     2.84374549
  Sum of centres and spreads ( -5.649669,  5.654070,  5.652326 )    19.65109543

    640     0.249E-13     0.0000002962       19.6510954332      18.34  <-- CONV
        O_D=      0.3080786 O_OD=      5.1631909 O_TOT=     19.6510954 <-- SPRD
 Delta: O_D=  0.3885781E-15 O_OD=  0.2220446E-13 O_TOT=  0.2486900E-13 <-- DLTA
 ------------------------------------------------------------------------------
 Cycle:    680
  WF centre and spread    1  ( -1.829959,  0.995952,  0.995786 )     2.07111591
  WF centre and spread    2  ( -0.995390,  0.995786,  1.830295 )     2.06914782
  WF centre and spread    3  ( -0.995281,  1.830498,  0.995507 )     2.06785719
  WF centre and spread    4  ( -1.830158,  1.830421,  1.830328 )     2.06876748
  WF centre and spread    5  (  0.471063,  0.470807,  0.470225 )     2.84328422
  WF centre and spread    6  (  0.470883, -0.470052, -0.469875 )     2.84361476
  WF centre and spread    7  ( -0.470468,  0.470644, -0.469907 )     2.84356257
  WF centre and spread    8  ( -0.470360, -0.469985,  0.469969 )     2.84374549
  Sum of centres and spreads ( -5.649669,  5.654070,  5.652326 )    19.65109543

    680    -0.497E-13     0.0000002745       19.6510954332      18.79  <-- CONV
        O_D=      0.3080786 O_OD=      5.1631909 O_TOT=     19.6510954 <-- SPRD
 Delta: O_D=  0.1221245E-14 O_OD= -0.5151435E-13 O_TOT= -0.4973799E-13 <-- DLTA
 ------------------------------------------------------------------------------

 Writing checkpoint file gaas.chk... done

 Cycle:    720
  WF centre and spread    1  ( -1.829959,  0.995952,  0.995786 )     2.07111591
  WF centre and spread    2  ( -0.995390,  0.995786,  1.830295 )     2.06914782
  WF centre and spread    3  ( -0.995281,  1.830498,  0.995507 )     2.06785719
  WF centre and spread    4  ( -1.830158,  1.830421,  1.830328 )     2.06876748
  WF centre and spread    5  (  0.471063,  0.470807,  0.470225 )     2.84328422
  WF centre and spread    6  (  0.470883, -0.470052, -0.469875 )     2.84361476
  WF centre and spread    7  ( -0.470468,  0.470644, -0.469907 )     2.84356257
  WF centre and spread    8  ( -0.470360, -0.469985,  0.469969 )     2.84374549
  Sum of centres and spreads ( -5.649669,  5.654070,  5.652326 )    19.65109543

    720     0.568E-13     0.0000002571       19.6510954332      19.23  <-- CONV
        O_D=      0.3080786 O_OD=      5.1631909 O_TOT=     19.6510954 <-- SPRD
 Delta: O_D=  0.5551115E-16 O_OD=  0.5684342E-13 O_TOT=  0.5684342E-13 <-- DLTA
 ------------------------------------------------------------------------------
 Cycle:    760
  WF centre and spread    1  ( -1.829959,  0.995952,  0.995786 )     2.07111591
  WF centre and spread    2  ( -0.995390,  0.995786,  1.830295 )     2.06914782
  WF centre and spread    3  ( -0.995281,  1.830498,  0.995507 )     2.06785719
  WF centre and spread    4  ( -1.830158,  1.830421,  1.830328 )     2.06876748
  WF centre and spread    5  (  0.471063,  0.470807,  0.470224 )     2.84328422
  WF centre and spread    6  (  0.470883, -0.470052, -0.469875 )     2.84361476
  WF centre and spread    7  ( -0.470468,  0.470644, -0.469907 )     2.84356257
  WF centre and spread    8  ( -0.470360, -0.469985,  0.469969 )     2.84374549
  Sum of centres and spreads ( -5.649669,  5.654070,  5.652326 )    19.65109543

    760    -0.604E-13     0.0000002430       19.6510954332      19.72  <-- CONV
        O_D=      0.3080786 O_OD=      5.1631909 O_TOT=     19.6510954 <-- SPRD
 Delta: O_D=  0.1998401E-14 O_OD= -0.6306067E-13 O_TOT= -0.6039613E-13 <-- DLTA
 ------------------------------------------------------------------------------
 Cycle:    800
  WF centre and spread    1  ( -1.829959,  0.995952,  0.995786 )     2.07111591
  WF centre and spread    2  ( -0.995390,  0.995786,  1.830295 )     2.06914782
  WF centre and spread    3  ( -0.995281,  1.830498,  0.995507 )     2.06785719
  WF centre and spread    4  ( -1.830158,  1.830421,  1.830328 )     2.06876748
  WF centre and spread    5  (  0.471063,  0.470807,  0.470224 )     2.84328422
  WF centre and spread    6  (  0.470883, -0.470052, -0.469875 )     2.84361476
  WF centre and spread    7  ( -0.470468,  0.470644, -0.469907 )     2.84356257
  WF centre and spread    8  ( -0.470360, -0.469985,  0.469969 )     2.84374549
  Sum of centres and spreads ( -5.649669,  5.654070,  5.652326 )    19.65109543

    800     0.000E+00     0.0000002267       19.6510954332      20.17  <-- CONV
        O_D=      0.3080786 O_OD=      5.1631909 O_TOT=     19.6510954 <-- SPRD
 Delta: O_D=  0.1165734E-14 O_OD=  0.8881784E-15 O_TOT=  0.0000000E+00 <-- DLTA
 ------------------------------------------------------------------------------

 Writing checkpoint file gaas.chk... done

 Cycle:    840
  WF centre and spread    1  ( -1.829959,  0.995952,  0.995786 )     2.07111591
  WF centre and spread    2  ( -0.995390,  0.995786,  1.830295 )     2.06914782
  WF centre and spread    3  ( -0.995281,  1.830498,  0.995507 )     2.06785719
  WF centre and spread    4  ( -1.830158,  1.830421,  1.830327 )     2.06876748
  WF centre and spread    5  (  0.471063,  0.470807,  0.470224 )     2.84328422
  WF centre and spread    6  (  0.470883, -0.470052, -0.469875 )     2.84361476
  WF centre and spread    7  ( -0.470468,  0.470644, -0.469907 )     2.84356257
  WF centre and spread    8  ( -0.470360, -0.469984,  0.469969 )     2.84374549
  Sum of centres and spreads ( -5.649669,  5.654070,  5.652326 )    19.65109543

    840    -0.249E-13     0.0000002123       19.6510954332      20.61  <-- CONV
        O_D=      0.3080786 O_OD=      5.1631909 O_TOT=     19.6510954 <-- SPRD
 Delta: O_D= -0.8881784E-15 O_OD= -0.2220446E-13 O_TOT= -0.2486900E-13 <-- DLTA
 ------------------------------------------------------------------------------
 Cycle:    880
  WF centre and spread    1  ( -1.829959,  0.995952,  0.995786 )     2.07111591
  WF centre and spread    2  ( -0.995390,  0.995786,  1.830295 )     2.06914782
  WF centre and spread    3  ( -0.995281,  1.830498,  0.995507 )     2.06785719
  WF centre and spread    4  ( -1.830158,  1.830421,  1.830327 )     2.06876748
  WF centre and spread    5  (  0.471063,  0.470807,  0.470224 )     2.84328422
  WF centre and spread    6  (  0.470883, -0.470052, -0.469875 )     2.84361476
  WF centre and spread    7  ( -0.470468,  0.470644, -0.469907 )     2.84356257
  WF centre and spread    8  ( -0.470360, -0.469984,  0.469969 )     2.84374549
  Sum of centres and spreads ( -5.649669,  5.654070,  5.652326 )    19.65109543

    880    -0.213E-13     0.0000001995       19.6510954332      21.05  <-- CONV
        O_D=      0.3080786 O_OD=      5.1631909 O_TOT=     19.6510954 <-- SPRD
 Delta: O_D= -0.5551115E-15 O_OD= -0.1776357E-13 O_TOT= -0.2131628E-13 <-- DLTA
 ------------------------------------------------------------------------------

 Writing checkpoint file gaas.chk... done

 Cycle:    920
  WF centre and spread    1  ( -1.829959,  0.995952,  0.995786 )     2.07111591
  WF centre and spread    2  ( -0.995390,  0.995786,  1.830295 )     2.06914782
  WF centre and spread    3  ( -0.995281,  1.830498,  0.995507 )     2.06785719
  WF centre and spread    4  ( -1.830158,  1.830421,  1.830327 )     2.06876748
  WF centre and spread    5  (  0.471063,  0.470807,  0.470224 )     2.84328422
  WF centre and spread    6  (  0.470883, -0.470052, -0.469875 )     2.84361476
  WF centre and spread    7  ( -0.470468,  0.470644, -0.469907 )     2.84356257
  WF centre and spread    8  ( -0.470360, -0.469984,  0.469969 )     2.84374549
  Sum of centres and spreads ( -5.649669,  5.654070,  5.652326 )    19.65109543

    920    -0.391E-13     0.0000001866       19.6510954332      21.46  <-- CONV
        O_D=      0.3080786 O_OD=      5.1631909 O_TOT=     19.6510954 <-- SPRD
 Delta: O_D= -0.3885781E-15 O_OD= -0.3907985E-13 O_TOT= -0.3907985E-13 <-- DLTA
 ------------------------------------------------------------------------------
 Cycle:    960
  WF centre and spread    1  ( -1.829959,  0.995952,  0.995786 )     2.07111591
  WF centre and spread    2  ( -0.995390,  0.995786,  1.830295 )     2.06914782
  WF centre and spread    3  ( -0.995281,  1.830498,  0.995507 )     2.06785719
  WF centre and spread    4  ( -1.830158,  1.830421,  1.830327 )     2.06876748
  WF centre and spread    5  (  0.471063,  0.470807,  0.470224 )     2.84328422
  WF centre and spread    6  (  0.470883, -0.470052, -0.469875 )     2.84361476
  WF centre and spread    7  ( -0.470468,  0.470644, -0.469907 )     2.84356257
  WF centre and spread    8  ( -0.470360, -0.469984,  0.469969 )     2.84374549
  Sum of centres and spreads ( -5.649669,  5.654070,  5.652326 )    19.65109543

    960    -0.284E-13     0.0000001752       19.6510954332      21.88  <-- CONV
        O_D=      0.3080786 O_OD=      5.1631909 O_TOT=     19.6510954 <-- SPRD
 Delta: O_D= -0.1165734E-14 O_OD= -0.2309264E-13 O_TOT= -0.2842171E-13 <-- DLTA
 ------------------------------------------------------------------------------
 Cycle:   1000
  WF centre and spread    1  ( -1.829959,  0.995952,  0.995786 )     2.07111591
  WF centre and spread    2  ( -0.995390,  0.995786,  1.830295 )     2.06914782
  WF centre and spread    3  ( -0.995281,  1.830498,  0.995507 )     2.06785719
  WF centre and spread    4  ( -1.830158,  1.830421,  1.830327 )     2.06876748
  WF centre and spread    5  (  0.471063,  0.470807,  0.470224 )     2.84328422
  WF centre and spread    6  (  0.470883, -0.470052, -0.469875 )     2.84361476
  WF centre and spread    7  ( -0.470468,  0.470644, -0.469907 )     2.84356257
  WF centre and spread    8  ( -0.470360, -0.469984,  0.469969 )     2.84374549
  Sum of centres and spreads ( -5.649669,  5.654070,  5.652326 )    19.65109543

   1000     0.000E+00     0.0000001643       19.6510954332      22.31  <-- CONV
        O_D=      0.3080786 O_OD=      5.1631909 O_TOT=     19.6510954 <-- SPRD
 Delta: O_D=  0.1054712E-14 O_OD=  0.1776357E-14 O_TOT=  0.0000000E+00 <-- DLTA
 ------------------------------------------------------------------------------

 Writing checkpoint file gaas.chk... done

 Final State
  WF centre and spread    1  ( -1.829959,  0.995952,  0.995786 )     2.07111591
  WF centre and spread    2  ( -0.995390,  0.995786,  1.830295 )     2.06914782
  WF centre and spread    3  ( -0.995281,  1.830498,  0.995507 )     2.06785719
  WF centre and spread    4  ( -1.830158,  1.830421,  1.830327 )     2.06876748
  WF centre and spread    5  (  0.471063,  0.470807,  0.470224 )     2.84328422
  WF centre and spread    6  (  0.470883, -0.470052, -0.469875 )     2.84361476
  WF centre and spread    7  ( -0.470468,  0.470644, -0.469907 )     2.84356257
  WF centre and spread    8  ( -0.470360, -0.469984,  0.469969 )     2.84374549
  Sum of centres and spreads ( -5.649669,  5.654070,  5.652326 )    19.65109543

         Spreads (Ang^2)       Omega I      =    14.179825868
        ================       Omega D      =     0.308078617
                               Omega OD     =     5.163190949
    Final Spread (Ang^2)       Omega Total  =    19.651095433
 ------------------------------------------------------------------------------
 Time for wannierise           11.388 (sec)

 Writing checkpoint file gaas.chk... done

 Time for plotting              0.000 (sec)
 Total Execution Time          22.472 (sec)

 *===========================================================================*
 |                             TIMING INFORMATION                            |
 *===========================================================================*
 |    Tag                                                Ncalls      Time (s)|
 |---------------------------------------------------------------------------|
 |kmesh: get                                        :         1         0.064|
 |overlap: read                                     :         1         0.072|
 |dis: main                                         :         1        10.936|
 |wann: main                                        :         1        11.388|
 |plot: main                                        :         1         0.000|
 *---------------------------------------------------------------------------*

 All done: wannier90 exiting
