 ## written on  6Nov2020 at 15:02:53 
  -25.000000000       0.000001212
  -24.990000000       0.000001217
  -24.980000000       0.000001222
  -24.970000000       0.000001228
  -24.960000000       0.000001233
  -24.950000000       0.000001239
  -24.940000000       0.000001244
  -24.930000000       0.000001250
  -24.920000000       0.000001256
  -24.910000000       0.000001261
  -24.900000000       0.000001267
  -24.890000000       0.000001273
  -24.880000000       0.000001278
  -24.870000000       0.000001284
  -24.860000000       0.000001290
  -24.850000000       0.000001296
  -24.840000000       0.000001302
  -24.830000000       0.000001308
  -24.820000000       0.000001314
  -24.810000000       0.000001320
  -24.800000000       0.000001326
  -24.790000000       0.000001332
  -24.780000000       0.000001338
  -24.770000000       0.000001344
  -24.760000000       0.000001350
  -24.750000000       0.000001357
  -24.740000000       0.000001363
  -24.730000000       0.000001369
  -24.720000000       0.000001376
  -24.710000000       0.000001382
  -24.700000000       0.000001388
  -24.690000000       0.000001395
  -24.680000000       0.000001401
  -24.670000000       0.000001408
  -24.660000000       0.000001415
  -24.650000000       0.000001421
  -24.640000000       0.000001428
  -24.630000000       0.000001435
  -24.620000000       0.000001442
  -24.610000000       0.000001448
  -24.600000000       0.000001455
  -24.590000000       0.000001462
  -24.580000000       0.000001469
  -24.570000000       0.000001476
  -24.560000000       0.000001483
  -24.550000000       0.000001490
  -24.540000000       0.000001498
  -24.530000000       0.000001505
  -24.520000000       0.000001512
  -24.510000000       0.000001519
  -24.500000000       0.000001527
  -24.490000000       0.000001534
  -24.480000000       0.000001542
  -24.470000000       0.000001549
  -24.460000000       0.000001557
  -24.450000000       0.000001564
  -24.440000000       0.000001572
  -24.430000000       0.000001580
  -24.420000000       0.000001588
  -24.410000000       0.000001595
  -24.400000000       0.000001603
  -24.390000000       0.000001611
  -24.380000000       0.000001619
  -24.370000000       0.000001627
  -24.360000000       0.000001635
  -24.350000000       0.000001644
  -24.340000000       0.000001652
  -24.330000000       0.000001660
  -24.320000000       0.000001668
  -24.310000000       0.000001677
  -24.300000000       0.000001685
  -24.290000000       0.000001694
  -24.280000000       0.000001702
  -24.270000000       0.000001711
  -24.260000000       0.000001720
  -24.250000000       0.000001728
  -24.240000000       0.000001737
  -24.230000000       0.000001746
  -24.220000000       0.000001755
  -24.210000000       0.000001764
  -24.200000000       0.000001773
  -24.190000000       0.000001782
  -24.180000000       0.000001791
  -24.170000000       0.000001801
  -24.160000000       0.000001810
  -24.150000000       0.000001820
  -24.140000000       0.000001829
  -24.130000000       0.000001839
  -24.120000000       0.000001848
  -24.110000000       0.000001858
  -24.100000000       0.000001868
  -24.090000000       0.000001877
  -24.080000000       0.000001887
  -24.070000000       0.000001897
  -24.060000000       0.000001907
  -24.050000000       0.000001918
  -24.040000000       0.000001928
  -24.030000000       0.000001938
  -24.020000000       0.000001948
  -24.010000000       0.000001959
  -24.000000000       0.000001969
  -23.990000000       0.000001980
  -23.980000000       0.000001991
  -23.970000000       0.000002001
  -23.960000000       0.000002012
  -23.950000000       0.000002023
  -23.940000000       0.000002034
  -23.930000000       0.000002045
  -23.920000000       0.000002056
  -23.910000000       0.000002068
  -23.900000000       0.000002079
  -23.890000000       0.000002091
  -23.880000000       0.000002102
  -23.870000000       0.000002114
  -23.860000000       0.000002125
  -23.850000000       0.000002137
  -23.840000000       0.000002149
  -23.830000000       0.000002161
  -23.820000000       0.000002173
  -23.810000000       0.000002185
  -23.800000000       0.000002198
  -23.790000000       0.000002210
  -23.780000000       0.000002223
  -23.770000000       0.000002235
  -23.760000000       0.000002248
  -23.750000000       0.000002261
  -23.740000000       0.000002273
  -23.730000000       0.000002286
  -23.720000000       0.000002300
  -23.710000000       0.000002313
  -23.700000000       0.000002326
  -23.690000000       0.000002339
  -23.680000000       0.000002353
  -23.670000000       0.000002367
  -23.660000000       0.000002380
  -23.650000000       0.000002394
  -23.640000000       0.000002408
  -23.630000000       0.000002422
  -23.620000000       0.000002437
  -23.610000000       0.000002451
  -23.600000000       0.000002465
  -23.590000000       0.000002480
  -23.580000000       0.000002495
  -23.570000000       0.000002509
  -23.560000000       0.000002524
  -23.550000000       0.000002539
  -23.540000000       0.000002555
  -23.530000000       0.000002570
  -23.520000000       0.000002585
  -23.510000000       0.000002601
  -23.500000000       0.000002617
  -23.490000000       0.000002633
  -23.480000000       0.000002649
  -23.470000000       0.000002665
  -23.460000000       0.000002681
  -23.450000000       0.000002697
  -23.440000000       0.000002714
  -23.430000000       0.000002731
  -23.420000000       0.000002748
  -23.410000000       0.000002765
  -23.400000000       0.000002782
  -23.390000000       0.000002799
  -23.380000000       0.000002817
  -23.370000000       0.000002834
  -23.360000000       0.000002852
  -23.350000000       0.000002870
  -23.340000000       0.000002888
  -23.330000000       0.000002906
  -23.320000000       0.000002925
  -23.310000000       0.000002943
  -23.300000000       0.000002962
  -23.290000000       0.000002981
  -23.280000000       0.000003000
  -23.270000000       0.000003020
  -23.260000000       0.000003039
  -23.250000000       0.000003059
  -23.240000000       0.000003079
  -23.230000000       0.000003099
  -23.220000000       0.000003119
  -23.210000000       0.000003139
  -23.200000000       0.000003160
  -23.190000000       0.000003181
  -23.180000000       0.000003202
  -23.170000000       0.000003223
  -23.160000000       0.000003244
  -23.150000000       0.000003266
  -23.140000000       0.000003288
  -23.130000000       0.000003310
  -23.120000000       0.000003332
  -23.110000000       0.000003354
  -23.100000000       0.000003377
  -23.090000000       0.000003400
  -23.080000000       0.000003423
  -23.070000000       0.000003446
  -23.060000000       0.000003470
  -23.050000000       0.000003494
  -23.040000000       0.000003518
  -23.030000000       0.000003542
  -23.020000000       0.000003566
  -23.010000000       0.000003591
  -23.000000000       0.000003616
  -22.990000000       0.000003642
  -22.980000000       0.000003667
  -22.970000000       0.000003693
  -22.960000000       0.000003719
  -22.950000000       0.000003745
  -22.940000000       0.000003772
  -22.930000000       0.000003799
  -22.920000000       0.000003826
  -22.910000000       0.000003853
  -22.900000000       0.000003881
  -22.890000000       0.000003909
  -22.880000000       0.000003937
  -22.870000000       0.000003966
  -22.860000000       0.000003995
  -22.850000000       0.000004024
  -22.840000000       0.000004053
  -22.830000000       0.000004083
  -22.820000000       0.000004113
  -22.810000000       0.000004144
  -22.800000000       0.000004175
  -22.790000000       0.000004206
  -22.780000000       0.000004237
  -22.770000000       0.000004269
  -22.760000000       0.000004301
  -22.750000000       0.000004334
  -22.740000000       0.000004367
  -22.730000000       0.000004400
  -22.720000000       0.000004433
  -22.710000000       0.000004467
  -22.700000000       0.000004502
  -22.690000000       0.000004537
  -22.680000000       0.000004572
  -22.670000000       0.000004607
  -22.660000000       0.000004643
  -22.650000000       0.000004680
  -22.640000000       0.000004716
  -22.630000000       0.000004754
  -22.620000000       0.000004791
  -22.610000000       0.000004829
  -22.600000000       0.000004868
  -22.590000000       0.000004907
  -22.580000000       0.000004946
  -22.570000000       0.000004986
  -22.560000000       0.000005027
  -22.550000000       0.000005068
  -22.540000000       0.000005109
  -22.530000000       0.000005151
  -22.520000000       0.000005193
  -22.510000000       0.000005236
  -22.500000000       0.000005279
  -22.490000000       0.000005323
  -22.480000000       0.000005368
  -22.470000000       0.000005413
  -22.460000000       0.000005458
  -22.450000000       0.000005505
  -22.440000000       0.000005551
  -22.430000000       0.000005599
  -22.420000000       0.000005647
  -22.410000000       0.000005695
  -22.400000000       0.000005744
  -22.390000000       0.000005794
  -22.380000000       0.000005844
  -22.370000000       0.000005895
  -22.360000000       0.000005947
  -22.350000000       0.000006000
  -22.340000000       0.000006053
  -22.330000000       0.000006106
  -22.320000000       0.000006161
  -22.310000000       0.000006216
  -22.300000000       0.000006272
  -22.290000000       0.000006329
  -22.280000000       0.000006386
  -22.270000000       0.000006445
  -22.260000000       0.000006504
  -22.250000000       0.000006563
  -22.240000000       0.000006624
  -22.230000000       0.000006686
  -22.220000000       0.000006748
  -22.210000000       0.000006811
  -22.200000000       0.000006875
  -22.190000000       0.000006940
  -22.180000000       0.000007006
  -22.170000000       0.000007073
  -22.160000000       0.000007141
  -22.150000000       0.000007210
  -22.140000000       0.000007280
  -22.130000000       0.000007351
  -22.120000000       0.000007422
  -22.110000000       0.000007495
  -22.100000000       0.000007569
  -22.090000000       0.000007645
  -22.080000000       0.000007721
  -22.070000000       0.000007798
  -22.060000000       0.000007877
  -22.050000000       0.000007956
  -22.040000000       0.000008037
  -22.030000000       0.000008120
  -22.020000000       0.000008203
  -22.010000000       0.000008288
  -22.000000000       0.000008374
  -21.990000000       0.000008461
  -21.980000000       0.000008550
  -21.970000000       0.000008640
  -21.960000000       0.000008732
  -21.950000000       0.000008825
  -21.940000000       0.000008920
  -21.930000000       0.000009016
  -21.920000000       0.000009114
  -21.910000000       0.000009213
  -21.900000000       0.000009314
  -21.890000000       0.000009417
  -21.880000000       0.000009521
  -21.870000000       0.000009627
  -21.860000000       0.000009735
  -21.850000000       0.000009845
  -21.840000000       0.000009957
  -21.830000000       0.000010071
  -21.820000000       0.000010186
  -21.810000000       0.000010304
  -21.800000000       0.000010424
  -21.790000000       0.000010546
  -21.780000000       0.000010670
  -21.770000000       0.000010796
  -21.760000000       0.000010924
  -21.750000000       0.000011055
  -21.740000000       0.000011189
  -21.730000000       0.000011324
  -21.720000000       0.000011463
  -21.710000000       0.000011604
  -21.700000000       0.000011747
  -21.690000000       0.000011894
  -21.680000000       0.000012043
  -21.670000000       0.000012195
  -21.660000000       0.000012350
  -21.650000000       0.000012508
  -21.640000000       0.000012669
  -21.630000000       0.000012833
  -21.620000000       0.000013001
  -21.610000000       0.000013172
  -21.600000000       0.000013346
  -21.590000000       0.000013524
  -21.580000000       0.000013706
  -21.570000000       0.000013891
  -21.560000000       0.000014080
  -21.550000000       0.000014274
  -21.540000000       0.000014471
  -21.530000000       0.000014673
  -21.520000000       0.000014879
  -21.510000000       0.000015090
  -21.500000000       0.000015305
  -21.490000000       0.000015525
  -21.480000000       0.000015750
  -21.470000000       0.000015980
  -21.460000000       0.000016215
  -21.450000000       0.000016455
  -21.440000000       0.000016702
  -21.430000000       0.000016953
  -21.420000000       0.000017211
  -21.410000000       0.000017475
  -21.400000000       0.000017746
  -21.390000000       0.000018022
  -21.380000000       0.000018306
  -21.370000000       0.000018597
  -21.360000000       0.000018894
  -21.350000000       0.000019200
  -21.340000000       0.000019513
  -21.330000000       0.000019834
  -21.320000000       0.000020163
  -21.310000000       0.000020501
  -21.300000000       0.000020848
  -21.290000000       0.000021204
  -21.280000000       0.000021570
  -21.270000000       0.000021946
  -21.260000000       0.000022332
  -21.250000000       0.000022728
  -21.240000000       0.000023136
  -21.230000000       0.000023555
  -21.220000000       0.000023987
  -21.210000000       0.000024431
  -21.200000000       0.000024888
  -21.190000000       0.000025358
  -21.180000000       0.000025842
  -21.170000000       0.000026342
  -21.160000000       0.000026856
  -21.150000000       0.000027386
  -21.140000000       0.000027933
  -21.130000000       0.000028497
  -21.120000000       0.000029080
  -21.110000000       0.000029681
  -21.100000000       0.000030302
  -21.090000000       0.000030944
  -21.080000000       0.000031607
  -21.070000000       0.000032293
  -21.060000000       0.000033003
  -21.050000000       0.000033738
  -21.040000000       0.000034498
  -21.030000000       0.000035287
  -21.020000000       0.000036103
  -21.010000000       0.000036950
  -21.000000000       0.000037829
  -20.990000000       0.000038741
  -20.980000000       0.000039688
  -20.970000000       0.000040672
  -20.960000000       0.000041695
  -20.950000000       0.000042760
  -20.940000000       0.000043868
  -20.930000000       0.000045021
  -20.920000000       0.000046224
  -20.910000000       0.000047478
  -20.900000000       0.000048786
  -20.890000000       0.000050152
  -20.880000000       0.000051579
  -20.870000000       0.000053072
  -20.860000000       0.000054633
  -20.850000000       0.000056269
  -20.840000000       0.000057982
  -20.830000000       0.000059780
  -20.820000000       0.000061667
  -20.810000000       0.000063649
  -20.800000000       0.000065734
  -20.790000000       0.000067928
  -20.780000000       0.000070240
  -20.770000000       0.000072678
  -20.760000000       0.000075251
  -20.750000000       0.000077971
  -20.740000000       0.000080849
  -20.730000000       0.000083897
  -20.720000000       0.000087129
  -20.710000000       0.000090561
  -20.700000000       0.000094210
  -20.690000000       0.000098094
  -20.680000000       0.000102236
  -20.670000000       0.000106657
  -20.660000000       0.000111385
  -20.650000000       0.000116449
  -20.640000000       0.000121882
  -20.630000000       0.000127721
  -20.620000000       0.000134008
  -20.610000000       0.000140790
  -20.600000000       0.000148122
  -20.590000000       0.000156064
  -20.580000000       0.000164689
  -20.570000000       0.000174076
  -20.560000000       0.000184318
  -20.550000000       0.000195525
  -20.540000000       0.000207821
  -20.530000000       0.000221353
  -20.520000000       0.000236293
  -20.510000000       0.000252846
  -20.500000000       0.000271253
  -20.490000000       0.000291801
  -20.480000000       0.000314839
  -20.470000000       0.000340785
  -20.460000000       0.000370152
  -20.450000000       0.000403570
  -20.440000000       0.000441820
  -20.430000000       0.000485881
  -20.420000000       0.000536993
  -20.410000000       0.000596742
  -20.400000000       0.000667190
  -20.390000000       0.000751047
  -20.380000000       0.000851937
  -20.370000000       0.000974795
  -20.360000000       0.001126474
  -20.350000000       0.001316715
  -20.340000000       0.001559738
  -20.330000000       0.001876951
  -20.320000000       0.002301790
  -20.310000000       0.002888821
  -20.300000000       0.003732015
  -20.290000000       0.005004516
  -20.280000000       0.007054493
  -20.270000000       0.010670006
  -20.260000000       0.017965905
  -20.250000000       0.036383097
  -20.240000000       0.110083205
  -20.230000000       2.144766355
  -20.220000000      14.197194134
  -20.210000000       9.339657747
  -20.200000000       7.449253763
  -20.190000000       6.375552487
  -20.180000000       5.661846083
  -20.170000000       5.143837095
  -20.160000000       4.746022033
  -20.150000000       4.428222452
  -20.140000000       4.166837071
  -20.130000000       3.946975008
  -20.120000000       3.758717323
  -20.110000000       3.595169076
  -20.100000000       3.451369476
  -20.090000000       3.323646472
  -20.080000000       3.209216365
  -20.070000000       3.105925599
  -20.060000000       3.012078692
  -20.050000000       2.926320279
  -20.040000000       2.847552250
  -20.030000000       2.774874283
  -20.020000000       2.707540335
  -20.010000000       2.644926288
  -20.000000000       2.586505499
  -19.990000000       2.531830083
  -19.980000000       2.480516412
  -19.970000000       2.432233729
  -19.960000000       2.386695149
  -19.950000000       2.343650448
  -19.940000000       2.302880253
  -19.930000000       2.264191316
  -19.920000000       2.227412648
  -19.910000000       2.192392319
  -19.900000000       2.158994813
  -19.890000000       2.127098807
  -19.880000000       2.096595320
  -19.870000000       2.067386134
  -19.860000000       2.039382465
  -19.850000000       2.012503826
  -19.840000000       1.986677052
  -19.830000000       1.961835466
  -19.820000000       1.937918152
  -19.810000000       1.914869329
  -19.800000000       1.892637809
  -19.790000000       1.871176516
  -19.780000000       1.850442074
  -19.770000000       1.830394440
  -19.760000000       1.810996577
  -19.750000000       1.792214174
  -19.740000000       1.774015391
  -19.730000000       1.756370638
  -19.720000000       1.739252368
  -19.710000000       1.722634906
  -19.700000000       1.706494286
  -19.690000000       1.690808109
  -19.680000000       1.675555411
  -19.670000000       1.660716553
  -19.660000000       1.646273111
  -19.650000000       1.632207785
  -19.640000000       1.618504312
  -19.630000000       1.605147386
  -19.620000000       1.592122594
  -19.610000000       1.579416343
  -19.600000000       1.567015809
  -19.590000000       1.554908878
  -19.580000000       1.543084101
  -19.570000000       1.531530646
  -19.560000000       1.520238257
  -19.550000000       1.509197221
  -19.540000000       1.498398327
  -19.530000000       1.487832837
  -19.520000000       1.477492457
  -19.510000000       1.467369310
  -19.500000000       1.457455908
  -19.490000000       1.447745134
  -19.480000000       1.438230218
  -19.470000000       1.428904716
  -19.460000000       1.419762495
  -19.450000000       1.410797717
  -19.440000000       1.402004819
  -19.430000000       1.393378507
  -19.420000000       1.384913737
  -19.410000000       1.376605706
  -19.400000000       1.368449845
  -19.390000000       1.360441807
  -19.380000000       1.352577463
  -19.370000000       1.344852893
  -19.360000000       1.337264388
  -19.350000000       1.329808443
  -19.340000000       1.322481760
  -19.330000000       1.315281254
  -19.320000000       1.308204056
  -19.310000000       1.301247526
  -19.300000000       1.294409272
  -19.290000000       1.287687173
  -19.280000000       1.281079414
  -19.270000000       1.274584534
  -19.260000000       1.268201491
  -19.250000000       1.261929759
  -19.240000000       1.255769452
  -19.230000000       1.249721507
  -19.220000000       1.243787948
  -19.210000000       1.237972262
  -19.200000000       1.232279963
  -19.190000000       1.226719444
  -19.180000000       1.221303297
  -19.170000000       1.216050432
  -19.160000000       1.210989572
  -19.150000000       1.206165271
  -19.140000000       1.201648749
  -19.130000000       1.197558515
  -19.120000000       1.194102355
  -19.110000000       1.191670284
  -19.100000000       1.191063742
  -19.090000000       1.194148686
  -19.080000000       1.206143772
  -19.070000000       1.246747329
  -19.060000000       1.453450800
  -19.050000000      47.544239300
  -19.040000000      26.921805502
  -19.030000000      19.109489239
  -19.020000000      15.725928279
  -19.010000000      13.728817004
  -19.000000000      12.373685763
  -18.990000000      11.377032481
  -18.980000000      10.604331089
  -18.970000000       9.982489978
  -18.960000000       9.467940341
  -18.950000000       9.032891970
  -18.940000000       8.658677217
  -18.930000000       8.332232686
  -18.920000000       8.044108349
  -18.910000000       7.787277710
  -18.900000000       7.556394052
  -18.890000000       7.347307738
  -18.880000000       7.156742787
  -18.870000000       6.982074125
  -18.860000000       6.821170478
  -18.850000000       6.672281206
  -18.840000000       6.533953270
  -18.830000000       6.404969286
  -18.820000000       6.284300631
  -18.810000000       6.171071474
  -18.800000000       6.064530915
  -18.790000000       5.964031406
  -18.780000000       5.869013825
  -18.770000000       5.779043528
  -18.760000000       5.693641734
  -18.750000000       5.612182219
  -18.740000000       5.534699221
  -18.730000000       5.460760899
  -18.720000000       5.390094391
  -18.710000000       5.322459135
  -18.700000000       5.257639434
  -18.690000000       5.195440872
  -18.680000000       5.135687592
  -18.670000000       5.078220040
  -18.660000000       5.022893054
  -18.650000000       4.969574212
  -18.640000000       4.918142424
  -18.630000000       4.868486696
  -18.620000000       4.820505067
  -18.610000000       4.774103675
  -18.600000000       4.729195939
  -18.590000000       4.685701840
  -18.580000000       4.643547294
  -18.570000000       4.602663586
  -18.560000000       4.562986879
  -18.550000000       4.524457770
  -18.540000000       4.487020903
  -18.530000000       4.450624612
  -18.520000000       4.415220614
  -18.510000000       4.380763695
  -18.500000000       4.347211598
  -18.490000000       4.314524516
  -18.480000000       4.282665167
  -18.470000000       4.251598467
  -18.460000000       4.221291389
  -18.450000000       4.191712808
  -18.440000000       4.162833366
  -18.430000000       4.134625344
  -18.420000000       4.107062543
  -18.410000000       4.080120181
  -18.400000000       4.053774795
  -18.390000000       4.028004153
  -18.380000000       4.002787173
  -18.370000000       3.978103845
  -18.360000000       3.953935164
  -18.350000000       3.930263067
  -18.340000000       3.907070373
  -18.330000000       3.884340729
  -18.320000000       3.862058558
  -18.310000000       3.840209017
  -18.300000000       3.818777947
  -18.290000000       3.797751840
  -18.280000000       3.777117795
  -18.270000000       3.756863489
  -18.260000000       3.736977141
  -18.250000000       3.717447483
  -18.240000000       3.698263732
  -18.230000000       3.679415563
  -18.220000000       3.660893085
  -18.210000000       3.642686820
  -18.200000000       3.624787681
  -18.190000000       3.607186952
  -18.180000000       3.589876276
  -18.170000000       3.572847654
  -18.160000000       3.556093490
  -18.150000000       3.539606934
  -18.140000000       3.523387069
  -18.130000000       3.507506244
  -18.120000000       3.491676846
  -18.110000000       3.476184860
  -18.100000000       3.460928762
  -18.090000000       3.445900865
  -18.080000000       3.431095195
  -18.070000000       3.416506185
  -18.060000000       3.402128508
  -18.050000000       3.387957037
  -18.040000000       3.373986828
  -18.030000000       3.360213107
  -18.020000000       3.346631264
  -18.010000000       3.333236844
  -18.000000000       3.320025539
  -17.990000000       3.306993184
  -17.980000000       3.294135749
  -17.970000000       3.281449332
  -17.960000000       3.268930159
  -17.950000000       3.256574571
  -17.940000000       3.244379028
  -17.930000000       3.232340096
  -17.920000000       3.220454448
  -17.910000000       3.208718859
  -17.900000000       3.197130198
  -17.890000000       3.185685432
  -17.880000000       3.174381614
  -17.870000000       3.163215886
  -17.860000000       3.152185472
  -17.850000000       3.141287676
  -17.840000000       3.130519880
  -17.830000000       3.119879539
  -17.820000000       3.109364182
  -17.810000000       3.098971404
  -17.800000000       3.088698869
  -17.790000000       3.078544304
  -17.780000000       3.068505500
  -17.770000000       3.058580306
  -17.760000000       3.048766631
  -17.750000000       3.039062441
  -17.740000000       3.029465754
  -17.730000000       3.019974646
  -17.720000000       3.010587245
  -17.710000000       3.001301733
  -17.700000000       2.992116351
  -17.690000000       2.983029404
  -17.680000000       2.974039288
  -17.670000000       2.965144547
  -17.660000000       2.956344072
  -17.650000000       2.947637913
  -17.640000000       2.939032458
  -17.630000000       2.930636856
  -17.620000000       2.922465427
  -17.610000000       2.913707963
  -17.600000000       2.905411749
  -17.590000000       2.897215349
  -17.580000000       2.889104216
  -17.570000000       2.881074765
  -17.560000000       2.873125080
  -17.550000000       2.865253688
  -17.540000000       2.857459283
  -17.530000000       2.849740638
  -17.520000000       2.842096582
  -17.510000000       2.834525981
  -17.500000000       2.827027733
  -17.490000000       2.819600767
  -17.480000000       2.812244038
  -17.470000000       2.804956526
  -17.460000000       2.797737234
  -17.450000000       2.790585192
  -17.440000000       2.783499449
  -17.430000000       2.776479077
  -17.420000000       2.769523170
  -17.410000000       2.762630841
  -17.400000000       2.755801226
  -17.390000000       2.749033478
  -17.380000000       2.742326768
  -17.370000000       2.735680290
  -17.360000000       2.729093252
  -17.350000000       2.722564881
  -17.340000000       2.716094421
  -17.330000000       2.709681134
  -17.320000000       2.703324298
  -17.310000000       2.697023204
  -17.300000000       2.690777164
  -17.290000000       2.684585501
  -17.280000000       2.678447555
  -17.270000000       2.672362679
  -17.260000000       2.666330241
  -17.250000000       2.660349625
  -17.240000000       2.654420225
  -17.230000000       2.648541450
  -17.220000000       2.642712723
  -17.210000000       2.636933477
  -17.200000000       2.631203161
  -17.190000000       2.625521234
  -17.180000000       2.619887167
  -17.170000000       2.614300442
  -17.160000000       2.608760555
  -17.150000000       2.603267011
  -17.140000000       2.597819327
  -17.130000000       2.592417029
  -17.120000000       2.587059657
  -17.110000000       2.581746759
  -17.100000000       2.576477892
  -17.090000000       2.571252627
  -17.080000000       2.566070540
  -17.070000000       2.560931221
  -17.060000000       2.555834266
  -17.050000000       2.550779284
  -17.040000000       2.545765890
  -17.030000000       2.540793709
  -17.020000000       2.535862377
  -17.010000000       2.530971535
  -17.000000000       2.526120836
  -16.990000000       2.521309941
  -16.980000000       2.516538519
  -16.970000000       2.511806248
  -16.960000000       2.507112814
  -16.950000000       2.502457911
  -16.940000000       2.497841244
  -16.930000000       2.493262522
  -16.920000000       2.488721467
  -16.910000000       2.484217806
  -16.900000000       2.479751275
  -16.890000000       2.475321622
  -16.880000000       2.470928598
  -16.870000000       2.466571967
  -16.860000000       2.462251500
  -16.850000000       2.457966977
  -16.840000000       2.453718189
  -16.830000000       2.449504934
  -16.820000000       2.445327022
  -16.810000000       2.441184272
  -16.800000000       2.437076515
  -16.790000000       2.433003591
  -16.780000000       2.428965354
  -16.770000000       2.424961670
  -16.760000000       2.420992419
  -16.750000000       2.417057496
  -16.740000000       2.413156811
  -16.730000000       2.409290293
  -16.720000000       2.405457888
  -16.710000000       2.401659567
  -16.700000000       2.397895322
  -16.690000000       2.394165176
  -16.680000000       2.390469182
  -16.670000000       2.386807428
  -16.660000000       2.383180048
  -16.650000000       2.379587222
  -16.640000000       2.376029191
  -16.630000000       2.372506267
  -16.620000000       2.369018846
  -16.610000000       2.365567427
  -16.600000000       2.362152637
  -16.590000000       2.358775262
  -16.580000000       2.355436284
  -16.570000000       2.352136938
  -16.560000000       2.348878781
  -16.550000000       2.345663792
  -16.540000000       2.342494499
  -16.530000000       2.339374170
  -16.520000000       2.336307076
  -16.510000000       2.333298869
  -16.500000000       2.330357146
  -16.490000000       2.327492300
  -16.480000000       2.324718837
  -16.470000000       2.322057477
  -16.460000000       2.319538634
  -16.450000000       2.317208388
  -16.440000000       2.315139233
  -16.430000000       2.313450527
  -16.420000000       2.312350077
  -16.410000000       2.312226102
  -16.400000000       2.313873631
  -16.390000000       2.319138138
  -16.380000000       2.333162436
  -16.370000000       2.375241289
  -16.360000000       2.577969930
  -16.350000000      34.869236429
  -16.340000000      28.799177527
  -16.330000000      20.669803104
  -16.320000000      17.183786711
  -16.310000000      15.134664257
  -16.300000000      13.747745776
  -16.290000000      12.729613663
  -16.280000000      11.941470544
  -16.270000000      11.308059636
  -16.260000000      10.784588036
  -16.250000000      10.342517025
  -16.240000000       9.962693386
  -16.230000000       9.631723871
  -16.220000000       9.339926175
  -16.210000000       9.080124045
  -16.200000000       8.846785368
  -16.190000000       8.635724393
  -16.180000000       8.443571239
  -16.170000000       8.267642148
  -16.160000000       8.105759107
  -16.150000000       7.956133727
  -16.140000000       7.817282148
  -16.130000000       7.687961582
  -16.120000000       7.567122285
  -16.110000000       7.453870705
  -16.100000000       7.347440871
  -16.090000000       7.247171925
  -16.080000000       7.152490299
  -16.070000000       7.062895453
  -16.060000000       6.977948351
  -16.050000000       6.897262088
  -16.040000000       6.820494206
  -16.030000000       6.747340356
  -16.020000000       6.677529057
  -16.010000000       6.610817383
  -16.000000000       6.546987707
  -15.990000000       6.485848251
  -15.980000000       6.427442481
  -15.970000000       6.370932591
  -15.960000000       6.316805494
  -15.950000000       6.264767807
  -15.940000000       6.214675580
  -15.930000000       6.166415380
  -15.920000000       6.119884564
  -15.910000000       6.074989107
  -15.900000000       6.031642571
  -15.890000000       5.989765321
  -15.880000000       5.949283877
  -15.870000000       5.910130333
  -15.860000000       5.872241863
  -15.850000000       5.835560271
  -15.840000000       5.800031602
  -15.830000000       5.765605789
  -15.820000000       5.732236345
  -15.810000000       5.699880079
  -15.800000000       5.668496856
  -15.790000000       5.638049367
  -15.780000000       5.608502940
  -15.770000000       5.579825353
  -15.760000000       5.551986687
  -15.750000000       5.524959176
  -15.740000000       5.498717089
  -15.730000000       5.473236616
  -15.720000000       5.448495771
  -15.710000000       5.424474311
  -15.700000000       5.401153652
  -15.690000000       5.378516825
  -15.680000000       5.356548404
  -15.670000000       5.335234481
  -15.660000000       5.314562623
  -15.650000000       5.294521859
  -15.640000000       5.275102662
  -15.630000000       5.256296955
  -15.620000000       5.238098118
  -15.610000000       5.220501010
  -15.600000000       5.203502005
  -15.590000000       5.187099040
  -15.580000000       5.171291680
  -15.570000000       5.156081198
  -15.560000000       5.141470673
  -15.550000000       5.127465115
  -15.540000000       5.114071609
  -15.530000000       5.101299495
  -15.520000000       5.089160576
  -15.510000000       5.077669370
  -15.500000000       5.066843411
  -15.490000000       5.056703605
  -15.480000000       5.047274659
  -15.470000000       5.038585594
  -15.460000000       5.030670360
  -15.450000000       5.023568583
  -15.440000000       5.017326469
  -15.430000000       5.011997908
  -15.420000000       5.007645833
  -15.410000000       5.004343903
  -15.400000000       5.002178594
  -15.390000000       5.001251842
  -15.380000000       5.001684389
  -15.370000000       5.003620091
  -15.360000000       5.007231493
  -15.350000000       5.012727183
  -15.340000000       5.020361581
  -15.330000000       5.030448218
  -15.320000000       5.043378045
  -15.310000000       5.059645190
  -15.300000000       5.079884034
  -15.290000000       5.104923968
  -15.280000000       5.135872727
  -15.270000000       5.174247758
  -15.260000000       5.222192119
  -15.250000000       5.282847651
  -15.240000000       5.361041370
  -15.230000000       5.464651653
  -15.220000000       5.607624840
  -15.210000000       5.817665729
  -15.200000000       6.160559760
  -15.190000000       6.851970953
  -15.180000000       9.622985480
  -15.170000000       3.971851537
  -15.160000000       3.853651372
  -15.150000000       3.827261111
  -15.140000000       3.812027611
  -15.130000000       3.800080993
  -15.120000000       3.789541029
  -15.110000000       3.779759842
  -15.100000000       3.770461855
  -15.090000000       3.761512283
  -15.080000000       3.752838226
  -15.070000000       3.744397129
  -15.060000000       3.736162618
  -15.050000000       3.728117561
  -15.040000000       3.720250442
  -15.030000000       3.712553423
  -15.020000000       3.705021509
  -15.010000000       3.697653445
  -15.000000000       3.690463614
  -14.990000000       3.683941699
  -14.980000000       3.676643598
  -14.970000000       3.669708175
  -14.960000000       3.663076116
  -14.950000000       3.656606862
  -14.940000000       3.650289971
  -14.930000000       3.644123330
  -14.920000000       3.638106495
  -14.910000000       3.632239622
  -14.900000000       3.626523206
  -14.890000000       3.620957988
  -14.880000000       3.615544927
  -14.870000000       3.610285180
  -14.860000000       3.605180102
  -14.850000000       3.600231241
  -14.840000000       3.595440348
  -14.830000000       3.590809375
  -14.820000000       3.586340486
  -14.810000000       3.582036065
  -14.800000000       3.577898724
  -14.790000000       3.573931316
  -14.780000000       3.570136949
  -14.770000000       3.566518998
  -14.760000000       3.563081119
  -14.750000000       3.559827272
  -14.740000000       3.556761738
  -14.730000000       3.553889137
  -14.720000000       3.551214457
  -14.710000000       3.548743075
  -14.700000000       3.546480792
  -14.690000000       3.544433855
  -14.680000000       3.542609003
  -14.670000000       3.541013498
  -14.660000000       3.539655167
  -14.650000000       3.538542456
  -14.640000000       3.537684476
  -14.630000000       3.537091064
  -14.620000000       3.536772848
  -14.610000000       3.536741318
  -14.600000000       3.537008908
  -14.590000000       3.537589084
  -14.580000000       3.538496448
  -14.570000000       3.539746854
  -14.560000000       3.541357530
  -14.550000000       3.543347230
  -14.540000000       3.545736393
  -14.530000000       3.548547336
  -14.520000000       3.551804461
  -14.510000000       3.555534504
  -14.500000000       3.559766810
  -14.490000000       3.564533657
  -14.480000000       3.569870634
  -14.470000000       3.575817025
  -14.460000000       3.582416404
  -14.450000000       3.589717124
  -14.440000000       3.597773048
  -14.430000000       3.606644349
  -14.420000000       3.616398468
  -14.410000000       3.627111254
  -14.400000000       3.638868329
  -14.390000000       3.651766735
  -14.380000000       3.665916927
  -14.370000000       3.681445220
  -14.360000000       3.698496778
  -14.350000000       3.717239345
  -14.340000000       3.737867893
  -14.330000000       3.760610507
  -14.320000000       3.785735889
  -14.310000000       3.813563036
  -14.300000000       3.844473893
  -14.290000000       3.878930105
  -14.280000000       3.917495535
  -14.270000000       3.960867056
  -14.260000000       4.009917443
  -14.250000000       4.065756421
  -14.240000000       4.129819684
  -14.230000000       4.204002371
  -14.220000000       4.290865840
  -14.210000000       4.393970496
  -14.200000000       4.518436689
  -14.190000000       4.671944496
  -14.180000000       4.866645236
  -14.170000000       5.123162386
  -14.160000000       5.480052414
  -14.150000000       6.020461216
  -14.140000000       6.971480416
  -14.130000000       9.352840534
  -14.120000000       4.052945919
  -14.110000000       1.954547844
  -14.100000000       1.883511750
  -14.090000000       1.862585505
  -14.080000000       1.852381036
  -14.070000000       1.845957441
  -14.060000000       1.841250082
  -14.050000000       1.837457011
  -14.040000000       1.834210480
  -14.030000000       1.831321457
  -14.020000000       1.828684326
  -14.010000000       1.826236227
  -14.000000000       1.823937879
  -13.990000000       1.821763778
  -13.980000000       1.819696878
  -13.970000000       1.817725541
  -13.960000000       1.815841717
  -13.950000000       1.814039813
  -13.940000000       1.812315972
  -13.930000000       1.810667605
  -13.920000000       1.809093071
  -13.910000000       1.807591472
  -13.900000000       1.806162508
  -13.890000000       1.804806387
  -13.880000000       1.803523767
  -13.870000000       1.802315736
  -13.860000000       1.801183809
  -13.850000000       1.800129964
  -13.840000000       1.799156701
  -13.830000000       1.798267152
  -13.820000000       1.797465248
  -13.810000000       1.796755980
  -13.800000000       1.796145802
  -13.790000000       1.795643269
  -13.780000000       1.795260092
  -13.770000000       1.795012904
  -13.760000000       1.794926410
  -13.750000000       1.795039281
  -13.740000000       1.795415965
  -13.730000000       1.796172474
  -13.720000000       1.797539208
  -13.710000000       1.800038725
  -13.700000000       1.805110678
  -13.690000000       1.818242775
  -13.680000000       1.882223294
  -13.670000000       9.695243383
  -13.660000000       4.855432535
  -13.650000000       4.057627292
  -13.640000000       3.682236715
  -13.630000000       3.454645068
  -13.620000000       3.298786477
  -13.610000000       3.184070280
  -13.600000000       3.095518736
  -13.590000000       3.024827917
  -13.580000000       2.966979051
  -13.570000000       2.918739720
  -13.560000000       2.877923889
  -13.550000000       2.842994989
  -13.540000000       2.812838748
  -13.530000000       2.786626181
  -13.520000000       2.763727316
  -13.510000000       2.743654880
  -13.500000000       2.726026386
  -13.490000000       2.710537934
  -13.480000000       2.696945686
  -13.470000000       2.685052513
  -13.460000000       2.674698196
  -13.450000000       2.665752138
  -13.440000000       2.658107862
  -13.430000000       2.651678838
  -13.420000000       2.646395266
  -13.410000000       2.642201604
  -13.400000000       2.639054664
  -13.390000000       2.636922136
  -13.380000000       2.635781477
  -13.370000000       2.635619076
  -13.360000000       2.636429656
  -13.350000000       2.638215886
  -13.340000000       2.640988161
  -13.330000000       2.644764556
  -13.320000000       2.649570926
  -13.310000000       2.655441164
  -13.300000000       2.662417613
  -13.290000000       2.670551646
  -13.280000000       2.679904421
  -13.270000000       2.690547850
  -13.260000000       2.702565792
  -13.250000000       2.716055527
  -13.240000000       2.731129549
  -13.230000000       2.747917760
  -13.220000000       2.766570135
  -13.210000000       2.787259979
  -13.200000000       2.810187924
  -13.190000000       2.835586835
  -13.180000000       2.863727901
  -13.170000000       2.894928209
  -13.160000000       2.929560265
  -13.150000000       2.968064048
  -13.140000000       3.010962412
  -13.130000000       3.058880980
  -13.120000000       3.112574131
  -13.110000000       3.172959376
  -13.100000000       3.241163476
  -13.090000000       3.318585294
  -13.080000000       3.406982957
  -13.070000000       3.508597146
  -13.060000000       3.626329440
  -13.050000000       3.764007009
  -13.040000000       3.926787303
  -13.030000000       4.121798714
  -13.020000000       4.359197737
  -13.010000000       4.654003471
  -13.000000000       5.029487163
  -12.990000000       5.523963676
  -12.980000000       6.205993214
  -12.970000000       7.214591782
  -12.960000000       8.904522053
  -12.950000000      13.426149115
  -12.940000000      87.581544135
  -12.930000000       4.864156952
  -12.920000000       0.942705001
  -12.910000000       0.717605732
  -12.900000000       0.654365378
  -12.890000000       0.627119731
  -12.880000000       0.612667625
  -12.870000000       0.604095949
  -12.860000000       0.598824943
  -12.850000000       0.595869776
  -12.840000000       0.595123868
  -12.830000000       0.597481646
  -12.820000000       0.606363780
  -12.810000000       0.636881154
  -12.800000000       0.846979255
  -12.790000000      11.390828894
  -12.780000000       6.225341712
  -12.770000000       4.904413458
  -12.760000000       4.236432234
  -12.750000000       3.818037656
  -12.740000000       3.525719167
  -12.730000000       3.307354833
  -12.720000000       3.136670380
  -12.710000000       2.998807222
  -12.700000000       2.884653206
  -12.690000000       2.788272377
  -12.680000000       2.705612621
  -12.670000000       2.633802645
  -12.660000000       2.570745089
  -12.650000000       2.514868959
  -12.640000000       2.464972622
  -12.630000000       2.420120858
  -12.620000000       2.379575397
  -12.610000000       2.342747077
  -12.600000000       2.309162448
  -12.590000000       2.278440510
  -12.580000000       2.250277026
  -12.570000000       2.224435211
  -12.560000000       2.200742729
  -12.550000000       2.179096713
  -12.540000000       2.159481378
  -12.530000000       2.142009426
  -12.520000000       2.127014888
  -12.510000000       2.115272119
  -12.500000000       2.108571259
  -12.490000000       2.111506774
  -12.480000000       2.138700149
  -12.470000000       2.261328619
  -12.460000000       3.711714942
  -12.450000000      31.518257611
  -12.440000000      20.179536571
  -12.430000000      16.415675343
  -12.420000000      14.391967148
  -12.410000000      13.088042757
  -12.400000000      12.161738127
  -12.390000000      11.461911456
  -12.380000000      10.910250541
  -12.370000000      10.461438960
  -12.360000000      10.087648098
  -12.350000000       9.770361035
  -12.340000000       9.496890568
  -12.330000000       9.258195149
  -12.320000000       9.047638374
  -12.310000000       8.860227858
  -12.300000000       8.692128746
  -12.290000000       8.540342042
  -12.280000000       8.402485662
  -12.270000000       8.276641603
  -12.260000000       8.161246904
  -12.250000000       8.055014339
  -12.240000000       7.956873708
  -12.230000000       7.865927734
  -12.220000000       7.781418447
  -12.210000000       7.702701256
  -12.200000000       7.629224716
  -12.190000000       7.560514587
  -12.180000000       7.496161145
  -12.170000000       7.435809014
  -12.160000000       7.379148943
  -12.150000000       7.325911127
  -12.140000000       7.275859740
  -12.130000000       7.228788464
  -12.120000000       7.184517693
  -12.110000000       7.142886704
  -12.100000000       7.103760395
  -12.090000000       7.067018763
  -12.080000000       7.032558502
  -12.070000000       7.000291459
  -12.060000000       6.970143373
  -12.050000000       6.942052997
  -12.040000000       6.915971447
  -12.030000000       6.891861762
  -12.020000000       6.869698659
  -12.010000000       6.849468490
  -12.000000000       6.831169390
  -11.990000000       6.814811646
  -11.980000000       6.800418293
  -11.970000000       6.788025969
  -11.960000000       6.777686062
  -11.950000000       6.769466224
  -11.940000000       6.763452289
  -11.930000000       6.759750722
  -11.920000000       6.758491703
  -11.910000000       6.759833027
  -11.900000000       6.763965040
  -11.890000000       6.771116916
  -11.880000000       6.781564703
  -11.870000000       6.795641720
  -11.860000000       6.813752127
  -11.850000000       6.836388861
  -11.840000000       6.864157645
  -11.830000000       6.897809659
  -11.820000000       6.938286757
  -11.810000000       6.986785334
  -11.800000000       7.044848613
  -11.790000000       7.114503547
  -11.780000000       7.198470246
  -11.770000000       7.300494006
  -11.760000000       7.425894775
  -11.750000000       7.582524808
  -11.740000000       7.782548482
  -11.730000000       8.046032290
  -11.720000000       8.409014876
  -11.710000000       8.944614770
  -11.700000000       9.832561645
  -11.690000000      11.705427343
  -11.680000000      21.689632959
  -11.670000000       4.409339900
  -11.660000000       4.225243608
  -11.650000000       4.180770428
  -11.640000000       4.156834495
  -11.630000000       4.139227772
  -11.620000000       4.124332726
  -11.610000000       4.110861261
  -11.600000000       4.098253912
  -11.590000000       4.086232688
  -11.580000000       4.074645079
  -11.570000000       4.063400699
  -11.560000000       4.052442491
  -11.550000000       4.041732479
  -11.540000000       4.031244241
  -11.530000000       4.020958757
  -11.520000000       4.010862212
  -11.510000000       4.000945638
  -11.500000000       3.991210692
  -11.490000000       3.981761150
  -11.480000000       3.974842684
  -11.470000000       3.962919332
  -11.460000000       3.953704131
  -11.450000000       3.944673761
  -11.440000000       3.935785887
  -11.430000000       3.927031147
  -11.420000000       3.918404681
  -11.410000000       3.909902850
  -11.400000000       3.901522528
  -11.390000000       3.893260883
  -11.380000000       3.885115284
  -11.370000000       3.877083257
  -11.360000000       3.869162459
  -11.350000000       3.861350661
  -11.340000000       3.853645730
  -11.330000000       3.846045625
  -11.320000000       3.838548386
  -11.310000000       3.831152055
  -11.300000000       3.823855029
  -11.290000000       3.816655343
  -11.280000000       3.809551375
  -11.270000000       3.802541491
  -11.260000000       3.795624109
  -11.250000000       3.788797696
  -11.240000000       3.782060770
  -11.230000000       3.775411894
  -11.220000000       3.768849672
  -11.210000000       3.762372754
  -11.200000000       3.755979825
  -11.190000000       3.749669613
  -11.180000000       3.743440879
  -11.170000000       3.737292422
  -11.160000000       3.731223074
  -11.150000000       3.725231699
  -11.140000000       3.719317193
  -11.130000000       3.713478484
  -11.120000000       3.707714527
  -11.110000000       3.702024309
  -11.100000000       3.696406841
  -11.090000000       3.690861162
  -11.080000000       3.685386339
  -11.070000000       3.679981461
  -11.060000000       3.674645644
  -11.050000000       3.669378025
  -11.040000000       3.664177767
  -11.030000000       3.659044054
  -11.020000000       3.653976090
  -11.010000000       3.648973104
  -11.000000000       3.644034341
  -10.990000000       3.639159071
  -10.980000000       3.634346580
  -10.970000000       3.629596174
  -10.960000000       3.624907178
  -10.950000000       3.620278934
  -10.940000000       3.615710804
  -10.930000000       3.611202164
  -10.920000000       3.606752410
  -10.910000000       3.602360953
  -10.900000000       3.598027220
  -10.890000000       3.593750655
  -10.880000000       3.589530715
  -10.870000000       3.585366875
  -10.860000000       3.581258624
  -10.850000000       3.577205464
  -10.840000000       3.573206915
  -10.830000000       3.569262507
  -10.820000000       3.565371786
  -10.810000000       3.561534312
  -10.800000000       3.557749658
  -10.790000000       3.554017411
  -10.780000000       3.550337168
  -10.770000000       3.546708545
  -10.760000000       3.543131165
  -10.750000000       3.539604667
  -10.740000000       3.536128704
  -10.730000000       3.532702938
  -10.720000000       3.529327047
  -10.710000000       3.526000721
  -10.700000000       3.522723663
  -10.690000000       3.519495587
  -10.680000000       3.516316224
  -10.670000000       3.513185316
  -10.660000000       3.510102619
  -10.650000000       3.507067903
  -10.640000000       3.504080952
  -10.630000000       3.501139621
  -10.620000000       3.498249572
  -10.610000000       3.495404786
  -10.600000000       3.492607066
  -10.590000000       3.489856280
  -10.580000000       3.487152317
  -10.570000000       3.484495088
  -10.560000000       3.481884528
  -10.550000000       3.479320599
  -10.540000000       3.476803291
  -10.530000000       3.474332629
  -10.520000000       3.471908675
  -10.510000000       3.469531535
  -10.500000000       3.467201365
  -10.490000000       3.464918381
  -10.480000000       3.462682870
  -10.470000000       3.460495209
  -10.460000000       3.458355909
  -10.450000000       3.456266072
  -10.440000000       3.454229520
  -10.430000000       3.452234387
  -10.420000000       3.450295650
  -10.410000000       3.448410257
  -10.400000000       3.446579966
  -10.390000000       3.444807143
  -10.380000000       3.443094862
  -10.370000000       3.441447134
  -10.360000000       3.439869264
  -10.350000000       3.438368379
  -10.340000000       3.436954231
  -10.330000000       3.435640451
  -10.320000000       3.434446575
  -10.310000000       3.433401447
  -10.300000000       3.432549166
  -10.290000000       3.431960085
  -10.280000000       3.431752459
  -10.270000000       3.432138606
  -10.260000000       3.433533914
  -10.250000000       3.436852002
  -10.240000000       3.444475061
  -10.230000000       3.464578971
  -10.220000000       3.545664366
  -10.210000000       7.410375885
  -10.200000000      11.612183738
  -10.190000000       9.074787433
  -10.180000000       8.027252480
  -10.170000000       7.422579382
  -10.160000000       7.018600504
  -10.150000000       6.725266043
  -10.140000000       6.500442166
  -10.130000000       6.321455713
  -10.120000000       6.174888493
  -10.110000000       6.052230460
  -10.100000000       5.947792016
  -10.090000000       5.857607626
  -10.080000000       5.778818697
  -10.070000000       5.709306401
  -10.060000000       5.647463028
  -10.050000000       5.592044095
  -10.040000000       5.542069548
  -10.030000000       5.496755896
  -10.020000000       5.455468464
  -10.010000000       5.417687070
  -10.000000000       5.382980902
   -9.990000000       5.350989797
   -9.980000000       5.321410098
   -9.970000000       5.293983818
   -9.960000000       5.268490234
   -9.950000000       5.244739293
   -9.940000000       5.222566386
   -9.930000000       5.201828174
   -9.920000000       5.182399213
   -9.910000000       5.164169215
   -9.900000000       5.147040798
   -9.890000000       5.130927634
   -9.880000000       5.115752913
   -9.870000000       5.101448054
   -9.860000000       5.087951626
   -9.850000000       5.075208436
   -9.840000000       5.063168758
   -9.830000000       5.051787667
   -9.820000000       5.041024482
   -9.810000000       5.030842273
   -9.800000000       5.021207445
   -9.790000000       5.012089372
   -9.780000000       5.003460086
   -9.770000000       4.995293995
   -9.760000000       4.987567647
   -9.750000000       4.980259505
   -9.740000000       4.973349788
   -9.730000000       4.966820276
   -9.720000000       4.960654180
   -9.710000000       4.954836009
   -9.700000000       4.949351458
   -9.690000000       4.944187300
   -9.680000000       4.939331298
   -9.670000000       4.934772122
   -9.660000000       4.930499276
   -9.650000000       4.926503030
   -9.640000000       4.922774364
   -9.630000000       4.919304910
   -9.620000000       4.916086909
   -9.610000000       4.913113162
   -9.600000000       4.910376993
   -9.590000000       4.907872214
   -9.580000000       4.905593092
   -9.570000000       4.903534316
   -9.560000000       4.901690979
   -9.550000000       4.900058542
   -9.540000000       4.898632822
   -9.530000000       4.897409968
   -9.520000000       4.896386441
   -9.510000000       4.895559002
   -9.500000000       4.894924693
   -9.490000000       4.894480825
   -9.480000000       4.894224967
   -9.470000000       4.894154932
   -9.460000000       4.894268771
   -9.450000000       4.894564763
   -9.440000000       4.895041402
   -9.430000000       4.895697399
   -9.420000000       4.896531671
   -9.410000000       4.897543333
   -9.400000000       4.898731700
   -9.390000000       4.900096281
   -9.380000000       4.901636773
   -9.370000000       4.903353065
   -9.360000000       4.905245236
   -9.350000000       4.907313555
   -9.340000000       4.909558492
   -9.330000000       4.911980733
   -9.320000000       4.914581246
   -9.310000000       4.917361502
   -9.300000000       4.920324786
   -9.290000000       4.923494139
   -9.280000000       4.927279126
   -9.270000000       4.930307058
   -9.260000000       4.933991352
   -9.250000000       4.937873654
   -9.240000000       4.941949149
   -9.230000000       4.946219416
   -9.220000000       4.950687075
   -9.210000000       4.955355191
   -9.200000000       4.960227152
   -9.190000000       4.965306650
   -9.180000000       4.970597681
   -9.170000000       4.976104558
   -9.160000000       4.981831930
   -9.150000000       4.987784797
   -9.140000000       4.993968537
   -9.130000000       5.000388930
   -9.120000000       5.007052188
   -9.110000000       5.013964989
   -9.100000000       5.021134514
   -9.090000000       5.028568490
   -9.080000000       5.036275234
   -9.070000000       5.044263715
   -9.060000000       5.052543613
   -9.050000000       5.061125391
   -9.040000000       5.070020388
   -9.030000000       5.079240912
   -9.020000000       5.088800371
   -9.010000000       5.098713414
   -9.000000000       5.108996118
   -8.990000000       5.119666217
   -8.980000000       5.130743397
   -8.970000000       5.142249688
   -8.960000000       5.154209983
   -8.950000000       5.166652771
   -8.940000000       5.179611181
   -8.930000000       5.193124532
   -8.920000000       5.207240731
   -8.910000000       5.222020123
   -8.900000000       5.237541987
   -8.890000000       5.253916074
   -8.880000000       5.271304409
   -8.870000000       5.289965533
   -8.860000000       5.310352571
   -8.850000000       5.333356389
   -8.840000000       5.361005683
   -8.830000000       5.398963969
   -8.820000000       5.469080080
   -8.810000000       5.736136813
   -8.800000000      88.435931238
   -8.790000000      28.174762535
   -8.780000000      21.654975590
   -8.770000000      18.723040636
   -8.760000000      16.975864844
   -8.750000000      15.788918220
   -8.740000000      14.921290390
   -8.730000000      14.255349413
   -8.720000000      13.727066057
   -8.710000000      13.298166417
   -8.700000000      12.944279575
   -8.690000000      12.649162695
   -8.680000000      12.401640891
   -8.670000000      12.193883030
   -8.660000000      12.020389551
   -8.650000000      11.877389909
   -8.640000000      11.762498685
   -8.630000000      11.674561397
   -8.620000000      11.613681482
   -8.610000000      11.581504137
   -8.600000000      11.582068416
   -8.590000000      11.624630873
   -8.580000000      11.738489820
   -8.570000000      12.216840239
   -8.560000000      31.614533911
   -8.550000000      22.971220548
   -8.540000000      21.035840938
   -8.530000000      20.804821350
   -8.520000000      22.801973913
   -8.510000000      15.274274753
   -8.500000000      12.840477168
   -8.490000000      12.367746494
   -8.480000000      12.016898938
   -8.470000000      11.727604885
   -8.460000000      11.480681377
   -8.450000000      11.265492133
   -8.440000000      11.075712508
   -8.430000000      10.906634370
   -8.420000000      10.754845519
   -8.410000000      10.617767293
   -8.400000000      10.493399793
   -8.390000000      10.380167197
   -8.380000000      10.276782717
   -8.370000000      10.182238701
   -8.360000000      10.095692440
   -8.350000000      10.016456357
   -8.340000000       9.943993283
   -8.330000000       9.879955931
   -8.320000000       9.817375551
   -8.310000000       9.762556764
   -8.300000000       9.713077563
   -8.290000000       9.668724580
   -8.280000000       9.629351763
   -8.270000000       9.594863115
   -8.260000000       9.565209590
   -8.250000000       9.540388561
   -8.240000000       9.520444889
   -8.230000000       9.505473531
   -8.220000000       9.495623827
   -8.210000000       9.491105757
   -8.200000000       9.492198617
   -8.190000000       9.499262735
   -8.180000000       9.512755203
   -8.170000000       9.533250932
   -8.160000000       9.561471016
   -8.150000000       9.598321287
   -8.140000000       9.644945445
   -8.130000000       9.702799454
   -8.120000000       9.773757829
   -8.110000000       9.860269046
   -8.100000000       9.965589099
   -8.090000000      10.094143975
   -8.080000000      10.252114160
   -8.070000000      10.448421518
   -8.060000000      10.696492011
   -8.050000000      11.017634202
   -8.040000000      11.448132608
   -8.030000000      12.056090367
   -8.020000000      12.989168565
   -8.010000000      14.654298948
   -8.000000000      18.918424313
   -7.990000000       8.602096613
   -7.980000000       5.790163849
   -7.970000000       5.684238059
   -7.960000000       5.652406032
   -7.950000000       5.636540868
   -7.940000000       5.626486938
   -7.930000000       5.619261149
   -7.920000000       5.613719848
   -7.910000000       5.609345642
   -7.900000000       5.605876595
   -7.890000000       5.603169154
   -7.880000000       5.601140191
   -7.870000000       5.599739896
   -7.860000000       5.598938072
   -7.850000000       5.598716748
   -7.840000000       5.599066001
   -7.830000000       5.599981495
   -7.820000000       5.601462974
   -7.810000000       5.603513334
   -7.800000000       5.606138036
   -7.790000000       5.609344740
   -7.780000000       5.613143083
   -7.770000000       5.617544565
   -7.760000000       5.622562503
   -7.750000000       5.628212058
   -7.740000000       5.634510302
   -7.730000000       5.641476361
   -7.720000000       5.649131622
   -7.710000000       5.657500061
   -7.700000000       5.666608838
   -7.690000000       5.676489798
   -7.680000000       5.687186739
   -7.670000000       5.698881153
   -7.660000000       5.711611479
   -7.650000000       5.724468309
   -7.640000000       5.738789379
   -7.630000000       5.754218474
   -7.620000000       5.770850123
   -7.610000000       5.788840938
   -7.600000000       5.808440026
   -7.590000000       5.830083927
   -7.580000000       5.854648724
   -7.570000000       5.884241293
   -7.560000000       5.925463242
   -7.550000000       6.011485641
   -7.540000000       6.873816245
   -7.530000000      16.263090116
   -7.520000000      12.624227777
   -7.510000000      11.315168795
   -7.500000000      10.677089331
   -7.490000000      10.253836368
   -7.480000000       9.966701353
   -7.470000000       9.762943845
   -7.460000000       9.615068196
   -7.450000000       9.507229883
   -7.440000000       9.429646045
   -7.430000000       9.375977603
   -7.420000000       9.341982698
   -7.410000000       9.324773699
   -7.400000000       9.322385099
   -7.390000000       9.333512761
   -7.380000000       9.357353542
   -7.370000000       9.393507329
   -7.360000000       9.441920661
   -7.350000000       9.502860532
   -7.340000000       9.576912716
   -7.330000000       9.665002873
   -7.320000000       9.768442034
   -7.310000000       9.889001484
   -7.300000000      10.029026641
   -7.290000000      10.191606233
   -7.280000000      10.380824171
   -7.270000000      10.602140906
   -7.260000000      10.862987371
   -7.250000000      11.173727315
   -7.240000000      11.549305015
   -7.230000000      12.012305655
   -7.220000000      12.599469697
   -7.210000000      13.379920496
   -7.200000000      14.554095727
   -7.190000000      23.403667144
   -7.180000000      69.628598419
   -7.170000000      63.947054685
   -7.160000000      90.503859180
   -7.150000000       7.651891822
   -7.140000000       5.849005046
   -7.130000000       5.676556273
   -7.120000000       5.629139436
   -7.110000000       5.612052155
   -7.100000000       5.606334083
   -7.090000000       5.606141190
   -7.080000000       5.609179354
   -7.070000000       5.614394072
   -7.060000000       5.621243475
   -7.050000000       5.629425276
   -7.040000000       5.638760182
   -7.030000000       5.649137001
   -7.020000000       5.660484728
   -7.010000000       5.672757425
   -7.000000000       5.685925604
   -6.990000000       5.699971096
   -6.980000000       5.714883878
   -6.970000000       5.730660065
   -6.960000000       5.747300596
   -6.950000000       5.764810366
   -6.940000000       5.783197651
   -6.930000000       5.802473734
   -6.920000000       5.822652677
   -6.910000000       5.843751249
   -6.900000000       5.865789067
   -6.890000000       5.888789386
   -6.880000000       5.912782930
   -6.870000000       5.937839129
   -6.860000000       5.965719614
   -6.850000000       5.991176294
   -6.840000000       6.019105184
   -6.830000000       6.048406257
   -6.820000000       6.078910771
   -6.810000000       6.110644135
   -6.800000000       6.143649064
   -6.790000000       6.177974563
   -6.780000000       6.213674347
   -6.770000000       6.250806699
   -6.760000000       6.289434698
   -6.750000000       6.329626611
   -6.740000000       6.371456452
   -6.730000000       6.415004907
   -6.720000000       6.460361765
   -6.710000000       6.507640446
   -6.700000000       6.557449069
   -6.690000000       6.608449498
   -6.680000000       6.661803739
   -6.670000000       6.717721152
   -6.660000000       6.776159199
   -6.650000000       6.837262245
   -6.640000000       6.901200324
   -6.630000000       6.968162788
   -6.620000000       7.038359655
   -6.610000000       7.112026125
   -6.600000000       7.189462503
   -6.590000000       7.271003135
   -6.580000000       7.356538747
   -6.570000000       7.446954169
   -6.560000000       7.542486139
   -6.550000000       7.643600439
   -6.540000000       7.750842491
   -6.530000000       7.864856577
   -6.520000000       7.986425309
   -6.510000000       8.116547879
   -6.500000000       8.256621570
   -6.490000000       8.408959063
   -6.480000000       8.578724962
   -6.470000000       8.785007378
   -6.460000000       9.223590383
   -6.450000000      30.701957691
   -6.440000000      19.983137208
   -6.430000000      17.586236547
   -6.420000000      16.527684262
   -6.410000000      15.993418201
   -6.400000000      15.743180627
   -6.390000000      15.681717692
   -6.380000000      15.767729145
   -6.370000000      15.986332843
   -6.360000000      16.339913350
   -6.350000000      16.846691563
   -6.340000000      17.544969929
   -6.330000000      18.505501114
   -6.320000000      19.861786172
   -6.310000000      21.891685331
   -6.300000000      25.291820489
   -6.290000000      32.591021232
   -6.280000000      77.929397532
   -6.270000000       5.565218565
   -6.260000000       5.044802578
   -6.250000000       4.915111885
   -6.240000000       4.848786440
   -6.230000000       4.805384554
   -6.220000000       4.774432573
   -6.210000000       4.752100243
   -6.200000000       4.736662812
   -6.190000000       4.727234533
   -6.180000000       4.723327011
   -6.170000000       4.724669679
   -6.160000000       4.731128601
   -6.150000000       4.742667619
   -6.140000000       4.759330793
   -6.130000000       4.781238674
   -6.120000000       4.808598545
   -6.110000000       4.841737388
   -6.100000000       4.881185739
   -6.090000000       4.927900941
   -6.080000000       4.983954368
   -6.070000000       5.055230819
   -6.060000000       5.167793044
   -6.050000000       5.673395059
   -6.040000000      18.553670910
   -6.030000000      13.009842115
   -6.020000000      11.383441758
   -6.010000000      10.573755966
   -6.000000000      10.096377191
   -5.990000000       9.793839369
   -5.980000000       9.597088898
   -5.970000000       9.469852286
   -5.960000000       9.390342671
   -5.950000000       9.343892191
   -5.940000000       9.319576217
   -5.930000000       9.308560982
   -5.920000000       9.303312546
   -5.910000000       9.297292974
   -5.900000000       9.284947801
   -5.890000000       9.261860147
   -5.880000000       9.225830745
   -5.870000000       9.172217058
   -5.860000000       9.103350434
   -5.850000000       9.019414856
   -5.840000000       8.922094570
   -5.830000000       8.813764253
   -5.820000000       8.697074454
   -5.810000000       8.574671616
   -5.800000000       8.449001163
   -5.790000000       8.322191114
   -5.780000000       8.196002873
   -5.770000000       8.071830494
   -5.760000000       7.950730116
   -5.750000000       7.833464786
   -5.740000000       7.720554229
   -5.730000000       7.612323094
   -5.720000000       7.508944203
   -5.710000000       7.410475392
   -5.700000000       7.316889766
   -5.690000000       7.228099879
   -5.680000000       7.143976641
   -5.670000000       7.064363831
   -5.660000000       6.989089070
   -5.650000000       6.917971966
   -5.640000000       6.850830090
   -5.630000000       6.787483263
   -5.620000000       6.727756648
   -5.610000000       6.671487946
   -5.600000000       6.618501795
   -5.590000000       6.568664319
   -5.580000000       6.521832001
   -5.570000000       6.477876672
   -5.560000000       6.436698439
   -5.550000000       6.398590578
   -5.540000000       6.362106395
   -5.530000000       6.328535174
   -5.520000000       6.297345106
   -5.510000000       6.268456821
   -5.500000000       6.241805450
   -5.490000000       6.217335345
   -5.480000000       6.194999345
   -5.470000000       6.174758533
   -5.460000000       6.156582142
   -5.450000000       6.140447545
   -5.440000000       6.126340319
   -5.430000000       6.114254387
   -5.420000000       6.104192251
   -5.410000000       6.096165314
   -5.400000000       6.090194315
   -5.390000000       6.086309886
   -5.380000000       6.084553247
   -5.370000000       6.084977064
   -5.360000000       6.087646508
   -5.350000000       6.092640530
   -5.340000000       6.100053411
   -5.330000000       6.109996646
   -5.320000000       6.122601215
   -5.310000000       6.138020348
   -5.300000000       6.156432888
   -5.290000000       6.178047412
   -5.280000000       6.203107287
   -5.270000000       6.231896936
   -5.260000000       6.264749635
   -5.250000000       6.302057318
   -5.240000000       6.344282984
   -5.230000000       6.391976592
   -5.220000000       6.445795611
   -5.210000000       6.506531947
   -5.200000000       6.575147689
   -5.190000000       6.652823291
   -5.180000000       6.741023630
   -5.170000000       6.841590331
   -5.160000000       6.956873600
   -5.150000000       7.089925245
   -5.140000000       7.244789418
   -5.130000000       7.426955456
   -5.120000000       7.644091495
   -5.110000000       7.907290578
   -5.100000000       8.233313627
   -5.090000000       8.648931814
   -5.080000000       9.200167342
   -5.070000000       9.974655671
   -5.060000000      11.166889591
   -5.050000000      13.336652053
   -5.040000000      19.376036629
   -5.030000000       4.042753530
   -5.020000000       2.703361857
   -5.010000000       2.602331911
   -5.000000000       2.572508299
   -4.990000000       2.557587093
   -4.980000000       2.548079912
   -4.970000000       2.541134045
   -4.960000000       2.535667228
   -4.950000000       2.531229799
   -4.940000000       2.527660916
   -4.930000000       2.524980899
   -4.920000000       2.523386663
   -4.910000000       2.523337623
   -4.900000000       2.525809098
   -4.890000000       2.533008062
   -4.880000000       2.550739059
   -4.870000000       2.598864481
   -4.860000000       2.792290311
   -4.850000000       9.005944288
   -4.840000000      26.785741544
   -4.830000000      18.971627387
   -4.820000000      15.849686137
   -4.810000000      14.069722050
   -4.800000000      12.889078368
   -4.790000000      12.036283146
   -4.780000000      11.385545395
   -4.770000000      10.869579554
   -4.760000000      10.448762851
   -4.750000000      10.098051378
   -4.740000000       9.800738175
   -4.730000000       9.545206988
   -4.720000000       9.323100111
   -4.710000000       9.128233230
   -4.700000000       8.955921334
   -4.690000000       8.802543561
   -4.680000000       8.665252983
   -4.670000000       8.541777574
   -4.660000000       8.430280367
   -4.650000000       8.329259133
   -4.640000000       8.237473266
   -4.630000000       8.153891030
   -4.620000000       8.077674924
   -4.610000000       8.008513803
   -4.600000000       7.944283305
   -4.590000000       7.886004858
   -4.580000000       7.832707962
   -4.570000000       7.783985119
   -4.560000000       7.739489730
   -4.550000000       7.698921514
   -4.540000000       7.662019291
   -4.530000000       7.628555550
   -4.520000000       7.598332047
   -4.510000000       7.571176194
   -4.500000000       7.546938068
   -4.490000000       7.525487920
   -4.480000000       7.506714123
   -4.470000000       7.490521449
   -4.460000000       7.476829671
   -4.450000000       7.465572399
   -4.440000000       7.456696157
   -4.430000000       7.450159646
   -4.420000000       7.445933186
   -4.410000000       7.443998334
   -4.400000000       7.444347627
   -4.390000000       7.446984501
   -4.380000000       7.451923337
   -4.370000000       7.459189655
   -4.360000000       7.468820459
   -4.350000000       7.480864743
   -4.340000000       7.495384170
   -4.330000000       7.512453936
   -4.320000000       7.532163860
   -4.310000000       7.554619711
   -4.300000000       7.579944823
   -4.290000000       7.608282050
   -4.280000000       7.639796115
   -4.270000000       7.674676434
   -4.260000000       7.713140524
   -4.250000000       7.755438111
   -4.240000000       7.801856103
   -4.230000000       7.852724642
   -4.220000000       7.908424499
   -4.210000000       7.969396171
   -4.200000000       8.036151142
   -4.190000000       8.109285922
   -4.180000000       8.189499716
   -4.170000000       8.277616841
   -4.160000000       8.374615471
   -4.150000000       8.481664899
   -4.140000000       8.600174433
   -4.130000000       8.731858438
   -4.120000000       8.878824146
   -4.110000000       9.043692200
   -4.100000000       9.229765268
   -4.090000000       9.441268890
   -4.080000000       9.683703841
   -4.070000000       9.964375965
   -4.060000000      10.293218549
   -4.050000000      10.684117058
   -4.040000000      11.157139503
   -4.030000000      11.742497545
   -4.020000000      12.488061255
   -4.010000000      13.474862246
   -4.000000000      14.852813350
   -3.990000000      16.936656490
   -3.980000000      20.530723911
   -3.970000000      28.576627506
   -3.960000000      71.061088832
   -3.950000000       5.362858037
   -3.940000000       4.466955558
   -3.930000000       4.354685716
   -3.920000000       4.319440092
   -3.910000000       4.303978601
   -3.900000000       4.295968898
   -3.890000000       4.291472712
   -3.880000000       4.288916122
   -3.870000000       4.287570468
   -3.860000000       4.287061446
   -3.850000000       4.287181440
   -3.840000000       4.287808448
   -3.830000000       4.288867613
   -3.820000000       4.290311574
   -3.810000000       4.292109803
   -3.800000000       4.294242524
   -3.790000000       4.296697095
   -3.780000000       4.299465782
   -3.770000000       4.302544346
   -3.760000000       4.305931122
   -3.750000000       4.309626409
   -3.740000000       4.313632053
   -3.730000000       4.317951174
   -3.720000000       4.322587964
   -3.710000000       4.327547564
   -3.700000000       4.332835969
   -3.690000000       4.338459977
   -3.680000000       4.344427155
   -3.670000000       4.350745823
   -3.660000000       4.357425057
   -3.650000000       4.364474696
   -3.640000000       4.371905370
   -3.630000000       4.379728526
   -3.620000000       4.387956471
   -3.610000000       4.396602419
   -3.600000000       4.405680548
   -3.590000000       4.415206064
   -3.580000000       4.425195277
   -3.570000000       4.435665680
   -3.560000000       4.446636050
   -3.550000000       4.458126553
   -3.540000000       4.470158859
   -3.530000000       4.482756283
   -3.520000000       4.495943933
   -3.510000000       4.509748884
   -3.500000000       4.524200369
   -3.490000000       4.539329998
   -3.480000000       4.555172009
   -3.470000000       4.571763552
   -3.460000000       4.589145007
   -3.450000000       4.607360362
   -3.440000000       4.626457634
   -3.430000000       4.646489368
   -3.420000000       4.667513203
   -3.410000000       4.689592543
   -3.400000000       4.712797336
   -3.390000000       4.737204995
   -3.380000000       4.762901488
   -3.370000000       4.789982633
   -3.360000000       4.818555659
   -3.350000000       4.848741090
   -3.340000000       4.880675039
   -3.330000000       4.914512027
   -3.320000000       4.950428498
   -3.310000000       4.988627211
   -3.300000000       5.029342855
   -3.290000000       5.072849283
   -3.280000000       5.119469029
   -3.270000000       5.169586089
   -3.260000000       5.223663532
   -3.250000000       5.282268590
   -3.240000000       5.346109946
   -3.230000000       5.416096402
   -3.220000000       5.493436536
   -3.210000000       5.579826765
   -3.200000000       5.677861294
   -3.190000000       5.792121670
   -3.180000000       5.933003457
   -3.170000000       6.137437988
   -3.160000000       6.750089808
   -3.150000000      53.169628413
   -3.140000000      28.495103076
   -3.130000000      23.381075190
   -3.120000000      21.093064989
   -3.110000000      20.073843499
   -3.100000000      20.169397711
   -3.090000000      24.043882516
   -3.080000000      13.722623995
   -3.070000000      13.028945475
   -3.060000000      12.586764033
   -3.050000000      12.234106592
   -3.040000000      11.947733644
   -3.030000000      11.711346093
   -3.020000000      11.516193128
   -3.010000000      11.356468498
   -3.000000000      11.228271575
   -2.990000000      11.129127057
   -2.980000000      11.057752229
   -2.970000000      11.013984891
   -2.960000000      10.998854197
   -2.950000000      11.014821084
   -2.940000000      11.066272266
   -2.930000000      11.160453969
   -2.920000000      11.309267799
   -2.910000000      11.532945877
   -2.900000000      11.868377910
   -2.890000000      12.391056685
   -2.880000000      13.288251142
   -2.870000000      15.233167008
   -2.860000000      26.980509325
   -2.850000000       8.014876410
   -2.840000000       7.928704313
   -2.830000000       7.976408539
   -2.820000000       8.091876594
   -2.810000000       8.301416404
   -2.800000000       8.692533675
   -2.790000000       9.593143031
   -2.780000000      15.317301347
   -2.770000000       5.919442336
   -2.760000000       5.795314788
   -2.750000000       5.732548862
   -2.740000000       5.680765995
   -2.730000000       5.633477050
   -2.720000000       5.588920339
   -2.710000000       5.546406364
   -2.700000000       5.505591068
   -2.690000000       5.466269149
   -2.680000000       5.428300704
   -2.670000000       5.391580820
   -2.660000000       5.356025384
   -2.650000000       5.321563805
   -2.640000000       5.288134954
   -2.630000000       5.255684760
   -2.620000000       5.224164664
   -2.610000000       5.193530597
   -2.600000000       5.163742250
   -2.590000000       5.134762537
   -2.580000000       5.106557183
   -2.570000000       5.079094405
   -2.560000000       5.052344642
   -2.550000000       5.026280340
   -2.540000000       5.000875764
   -2.530000000       4.976106838
   -2.520000000       4.951951011
   -2.510000000       4.928387127
   -2.500000000       4.905395324
   -2.490000000       4.882956934
   -2.480000000       4.861054398
   -2.470000000       4.839671187
   -2.460000000       4.818791730
   -2.450000000       4.798401354
   -2.440000000       4.778486222
   -2.430000000       4.759033278
   -2.420000000       4.740030206
   -2.410000000       4.721465375
   -2.400000000       4.703327806
   -2.390000000       4.685607133
   -2.380000000       4.668293562
   -2.370000000       4.651377850
   -2.360000000       4.634851266
   -2.350000000       4.618705571
   -2.340000000       4.602932987
   -2.330000000       4.587526183
   -2.320000000       4.572478243
   -2.310000000       4.557782659
   -2.300000000       4.543433304
   -2.290000000       4.529424420
   -2.280000000       4.515750605
   -2.270000000       4.502406796
   -2.260000000       4.489388261
   -2.250000000       4.476690585
   -2.240000000       4.464309664
   -2.230000000       4.452241694
   -2.220000000       4.440483163
   -2.210000000       4.429030848
   -2.200000000       4.417881806
   -2.190000000       4.407033373
   -2.180000000       4.396483158
   -2.170000000       4.386229042
   -2.160000000       4.376269174
   -2.150000000       4.366601973
   -2.140000000       4.357226129
   -2.130000000       4.348140601
   -2.120000000       4.339344618
   -2.110000000       4.330837690
   -2.100000000       4.322619597
   -2.090000000       4.314690424
   -2.080000000       4.307050519
   -2.070000000       4.299700545
   -2.060000000       4.292641468
   -2.050000000       4.285874569
   -2.040000000       4.279401455
   -2.030000000       4.273224072
   -2.020000000       4.267344717
   -2.010000000       4.261766057
   -2.000000000       4.256491141
   -1.990000000       4.251523425
   -1.980000000       4.246866787
   -1.970000000       4.242525555
   -1.960000000       4.238504534
   -1.950000000       4.234809032
   -1.940000000       4.231444905
   -1.930000000       4.228418598
   -1.920000000       4.225737233
   -1.910000000       4.223408789
   -1.900000000       4.221442850
   -1.890000000       4.219856623
   -1.880000000       4.219120363
   -1.870000000       4.217834208
   -1.860000000       4.217371283
   -1.850000000       4.217353939
   -1.840000000       4.217768608
   -1.830000000       4.218627716
   -1.820000000       4.219946982
   -1.810000000       4.221743934
   -1.800000000       4.224037778
   -1.790000000       4.226849470
   -1.780000000       4.230201879
   -1.770000000       4.234119965
   -1.760000000       4.238631002
   -1.750000000       4.243764832
   -1.740000000       4.249554145
   -1.730000000       4.256034819
   -1.720000000       4.263246291
   -1.710000000       4.271231999
   -1.700000000       4.280039885
   -1.690000000       4.289722981
   -1.680000000       4.300340091
   -1.670000000       4.311956594
   -1.660000000       4.324645378
   -1.650000000       4.338487953
   -1.640000000       4.353575764
   -1.630000000       4.370011766
   -1.620000000       4.387912306
   -1.610000000       4.407409407
   -1.600000000       4.428653533
   -1.590000000       4.451816984
   -1.580000000       4.477098084
   -1.570000000       4.504726396
   -1.560000000       4.534969259
   -1.550000000       4.568140093
   -1.540000000       4.604609033
   -1.530000000       4.644816727
   -1.520000000       4.689292451
   -1.510000000       4.738678258
   -1.500000000       4.793761658
[...]
    0.130000000       0.759612792
    0.140000000       0.741662131
    0.150000000       0.732927453
    0.160000000       0.727957480
    0.170000000       0.724827498
    0.180000000       0.722711370
    0.190000000       0.721204684
    0.200000000       0.720089700
    0.210000000       0.719240379
    0.220000000       0.718579474
    0.230000000       0.718057406
    0.240000000       0.717641111
    0.250000000       0.717307825
    0.260000000       0.717041445
    0.270000000       0.716830318
    0.280000000       0.716665847
    0.290000000       0.716541591
    0.300000000       0.716452667
    0.310000000       0.716395346
    0.320000000       0.716366776
    0.330000000       0.716364790
    0.340000000       0.716387770
    0.350000000       0.716434567
    0.360000000       0.716504435
    0.370000000       0.716597009
    0.380000000       0.716712297
    0.390000000       0.716850697
    0.400000000       0.717013043
    0.410000000       0.717200681
    0.420000000       0.717415586
    0.430000000       0.717660537
    0.440000000       0.717939374
    0.450000000       0.718257382
    0.460000000       0.718621870
    0.470000000       0.719043051
    0.480000000       0.719535444
    0.490000000       0.720120145
    0.500000000       0.720828668
    0.510000000       0.721709730
    0.520000000       0.722841905
    0.530000000       0.724358812
    0.540000000       0.726503561
    0.550000000       0.729759591
    0.560000000       0.735213422
    0.570000000       0.745790035
    0.580000000       0.772109018
    0.590000000       0.887193679
    0.600000000      13.552483408
    0.610000000       9.457424125
    0.620000000       6.879771041
    0.630000000       5.774126935
    0.640000000       5.125258309
    0.650000000       4.687706878
    0.660000000       4.368109605
    0.670000000       4.122161964
    0.680000000       3.925788615
    0.690000000       3.764637960
    0.700000000       3.629556605
    0.710000000       3.514396963
    0.720000000       3.414858120
    0.730000000       3.327829771
    0.740000000       3.251000099
    0.750000000       3.182610641
    0.760000000       3.121297218
    0.770000000       3.065983347
    0.780000000       3.015806850
    0.790000000       2.970068095
    0.800000000       2.928192718
    0.810000000       2.889704282
    0.820000000       2.854203875
    0.830000000       2.821354672
    0.840000000       2.790870083
    0.850000000       2.762504556
    0.860000000       2.736046349
    0.870000000       2.711311800
    0.880000000       2.688140732
    0.890000000       2.666392754
    0.900000000       2.645944235
    0.910000000       2.626685835
    0.920000000       2.608520460
    0.930000000       2.591361560
    0.940000000       2.575131716
    0.950000000       2.559761440
    0.960000000       2.545188171
    0.970000000       2.531355414
    0.980000000       2.518212012
    0.990000000       2.505711518
    1.000000000       2.493811657
    1.010000000       2.482473857
    1.020000000       2.471662848
    1.030000000       2.461346310
    1.040000000       2.451494564
    1.050000000       2.442080304
    1.060000000       2.433078361
    1.070000000       2.424465495
    1.080000000       2.416220208
    1.090000000       2.408322583
    1.100000000       2.400754141
    1.110000000       2.393497708
    1.120000000       2.386537301
    1.130000000       2.379858025
    1.140000000       2.373445983
    1.150000000       2.367288188
    1.160000000       2.361372493
    1.170000000       2.355687521
    1.180000000       2.350222603
    1.190000000       2.344967728
    1.200000000       2.339913485
    1.210000000       2.335051026
    1.220000000       2.330372019
    1.230000000       2.325868613
    1.240000000       2.321533401
    1.250000000       2.317359393
    1.260000000       2.313339985
    1.270000000       2.309468932
    1.280000000       2.305740325
    1.290000000       2.302148569
    1.300000000       2.298688363
    1.310000000       2.295354682
    1.320000000       2.292142759
    1.330000000       2.289048070
    1.340000000       2.286066318
    1.350000000       2.283193425
    1.360000000       2.280425513
    1.370000000       2.277758899
    1.380000000       2.275190081
    1.390000000       2.272715734
    1.400000000       2.270332694
    1.410000000       2.268037960
    1.420000000       2.265828682
    1.430000000       2.263702155
    1.440000000       2.261655820
    1.450000000       2.259687254
    1.460000000       2.257794174
    1.470000000       2.255974431
    1.480000000       2.254226012
    1.490000000       2.252547043
    1.500000000       2.250935792
    1.510000000       2.249390674
    1.520000000       2.247910261
    1.530000000       2.246493293
    1.540000000       2.245138697
    1.550000000       2.243845611
    1.560000000       2.242613407
    1.570000000       2.241441741
    1.580000000       2.240330600
    1.590000000       2.239280379
    1.600000000       2.238291975
    1.610000000       2.237366927
    1.620000000       2.236507594
    1.630000000       2.235717428
    1.640000000       2.235001335
    1.650000000       2.234366228
    1.660000000       2.233821830
    1.670000000       2.233381904
    1.680000000       2.233066179
    1.690000000       2.232903462
    1.700000000       2.232936857
    1.710000000       2.233232906
    1.720000000       2.233898436
    1.730000000       2.235113642
    1.740000000       2.237202171
    1.750000000       2.240794996
    1.760000000       2.247266389
    1.770000000       2.260123627
    1.780000000       2.290839071
    1.790000000       2.398944528
    1.800000000       3.882254960
    1.810000000      27.704160988
    1.820000000      18.148458009
    1.830000000      14.817019204
    1.840000000      12.994539053
    1.850000000      11.807886922
    1.860000000      10.958349757
    1.870000000      10.312452248
    1.880000000       9.800473719
    1.890000000       9.382010588
    1.900000000       9.031838518
    1.910000000       8.733299761
    1.920000000       8.474899470
    1.930000000       8.248419951
    1.940000000       8.047812878
    1.950000000       7.868516773
    1.960000000       7.707019448
    1.970000000       7.560567910
    1.980000000       7.426970438
    1.990000000       7.304458123
    2.000000000       7.191585881
    2.010000000       7.087160300
    2.020000000       6.990186151
    2.030000000       6.899826112
    2.040000000       6.815370026
    2.050000000       6.736211143
    2.060000000       6.661827541
    2.070000000       6.591767459
    2.080000000       6.525637600
    2.090000000       6.463093714
    2.100000000       6.403832975
    2.110000000       6.347587741
    2.120000000       6.294120430
    2.130000000       6.243219268
    2.140000000       6.194694754
    2.150000000       6.148376696
    2.160000000       6.104111715
    2.170000000       6.061761128
    2.180000000       6.021199154
    2.190000000       5.982311379
    2.200000000       5.944993434
    2.210000000       5.909149863
    2.220000000       5.874693143
    2.230000000       5.841542827
    2.240000000       5.809624807
    2.250000000       5.778870656
    2.260000000       5.749217096
    2.270000000       5.720605425
    2.280000000       5.692981153
    2.290000000       5.666293569
    2.300000000       5.640495409
    2.310000000       5.615542544
    2.320000000       5.591393712
    2.330000000       5.568010265
    2.340000000       5.545355958
    2.350000000       5.523396750
    2.360000000       5.502100625
    2.370000000       5.481437435
    2.380000000       5.461378756
    2.390000000       5.441897757
    2.400000000       5.422969085
    2.410000000       5.404568754
    2.420000000       5.386674051
    2.430000000       5.369263448
    2.440000000       5.352316516
    2.450000000       5.335813860
    2.460000000       5.319737042
    2.470000000       5.304068526
    2.480000000       5.288791621
    2.490000000       5.273890424
    2.500000000       5.259349778
    2.510000000       5.245155224
    2.520000000       5.231292963
    2.530000000       5.217749817
    2.540000000       5.204513195
    2.550000000       5.191571060
    2.560000000       5.178911904
    2.570000000       5.166524714
    2.580000000       5.154398952
    2.590000000       5.142524535
    2.600000000       5.130891815
    2.610000000       5.119491628
    2.620000000       5.108316420
    2.630000000       5.097357204
    2.640000000       5.086598271
    2.650000000       5.076042254
    2.660000000       5.065678025
    2.670000000       5.055498270
    2.680000000       5.045496088
    2.690000000       5.035664884
    2.700000000       5.025998339
    2.710000000       5.016490402
    2.720000000       5.007135276
    2.730000000       4.997927409
    2.740000000       4.988861485
    2.750000000       4.979932418
    2.760000000       4.971135338
    2.770000000       4.962465592
    2.780000000       4.953918729
    2.790000000       4.945490497
    2.800000000       4.937176838
    2.810000000       4.928973878
    2.820000000       4.920877924
    2.830000000       4.912885455
    2.840000000       4.904993123
    2.850000000       4.897197741
    2.860000000       4.889496280
    2.870000000       4.881885868
    2.880000000       4.874363780
    2.890000000       4.866927437
    2.900000000       4.859574401
    2.910000000       4.852302369
    2.920000000       4.845109175
    2.930000000       4.837992779
    2.940000000       4.830951268
    2.950000000       4.823982855
    2.960000000       4.817085872
    2.970000000       4.810258771
    2.980000000       4.803500124
    2.990000000       4.796808628
    3.000000000       4.790183106
    3.010000000       4.783622533
    3.020000000       4.777126074
    3.030000000       4.770693194
    3.040000000       4.764323985
    3.050000000       4.758020297
    3.060000000       4.751791382
    3.070000000       4.745707249
    3.080000000       4.746197407
    3.090000000       4.733622960
    3.100000000       4.727397036
    3.110000000       4.721411065
    3.120000000       4.715505866
    3.130000000       4.709665917
    3.140000000       4.703887998
    3.150000000       4.698171494
    3.160000000       4.692516719
    3.170000000       4.686924508
    3.180000000       4.681396127
    3.190000000       4.675933294
    3.200000000       4.670538263
    3.210000000       4.665213957
    3.220000000       4.659964171
    3.230000000       4.654793861
    3.240000000       4.649709570
    3.250000000       4.644720056
    3.260000000       4.639837243
    3.270000000       4.635077696
    3.280000000       4.630464980
    3.290000000       4.626033553
    3.300000000       4.621835471
    3.310000000       4.617952456
    3.320000000       4.614518929
    3.330000000       4.611769019
    3.340000000       4.610141196
    3.350000000       4.610538565
    3.360000000       4.615082222
    3.370000000       4.629830845
    3.380000000       4.678957782
    3.390000000       4.978183917
    3.400000000       3.124144933
    3.410000000       4.806962268
    3.420000000       4.744932422
    3.430000000       4.624592781
    3.440000000       4.588614588
    3.450000000       4.571198343
    3.460000000       4.560318620
    3.470000000       4.552363410
    3.480000000       4.545933329
    3.490000000       4.540391909
    3.500000000       4.535415450
    3.510000000       4.530825121
    3.520000000       4.526515619
    3.530000000       4.522421716
    3.540000000       4.518501320
    3.550000000       4.514726344
    3.560000000       4.511077518
    3.570000000       4.507541321
    3.580000000       4.504108085
    3.590000000       4.500770803
    3.600000000       4.497524343
    3.610000000       4.494364930
    3.620000000       4.491289798
    3.630000000       4.488296952
    3.640000000       4.485385024
    3.650000000       4.482553190
    3.660000000       4.479801180
    3.670000000       4.477129399
    3.680000000       4.474539310
    3.690000000       4.472034423
    3.700000000       4.469623116
    3.710000000       4.467328131
    3.720000000       4.465229057
    3.730000000       4.463784929
    3.740000000       4.476732435
    3.750000000       4.464727990
    3.760000000       4.457288787
    3.770000000       4.454838451
    3.780000000       4.452849355
    3.790000000       4.451029980
    3.800000000       4.449322212
    3.810000000       4.447708531
    3.820000000       4.446182422
    3.830000000       4.444741212
    3.840000000       4.443383824
    3.850000000       4.442109931
    3.860000000       4.440919594
    3.870000000       4.439813099
    3.880000000       4.438790867
    3.890000000       4.437853412
    3.900000000       4.437001312
    3.910000000       4.436235194
    3.920000000       4.435555727
    3.930000000       4.434963617
    3.940000000       4.434459598
    3.950000000       4.434044437
    3.960000000       4.433718929
    3.970000000       4.433483896
    3.980000000       4.433340189
    3.990000000       4.433288686
    4.000000000       4.433330295
    4.010000000       4.433465951
    4.020000000       4.433696622
    4.030000000       4.434023302
    4.040000000       4.434447020
    4.050000000       4.434968836
    4.060000000       4.435589844
    4.070000000       4.436311172
    4.080000000       4.437133984
    4.090000000       4.438059482
    4.100000000       4.439088905
    4.110000000       4.440223535
    4.120000000       4.441464691
    4.130000000       4.442813737
    4.140000000       4.444272086
    4.150000000       4.445841190
    4.160000000       4.447522555
    4.170000000       4.449317735
    4.180000000       4.451228338
    4.190000000       4.453256028
    4.200000000       4.455402528
    4.210000000       4.457669627
    4.220000000       4.460059197
    4.230000000       4.462573263
    4.240000000       4.465214425
    4.250000000       4.467996087
    4.260000000       4.470897108
    4.270000000       4.473912959
    4.280000000       4.477077976
    4.290000000       4.480381083
    4.300000000       4.483824027
    4.310000000       4.487409202
    4.320000000       4.491139183
    4.330000000       4.495016669
    4.340000000       4.499044468
    4.350000000       4.503225501
    4.360000000       4.507562802
    4.370000000       4.512059522
    4.380000000       4.516718940
    4.390000000       4.521544464
    4.400000000       4.526539637
    4.410000000       4.531708147
    4.420000000       4.537053835
    4.430000000       4.542580696
    4.440000000       4.548292898
    4.450000000       4.554194781
    4.460000000       4.560290871
    4.470000000       4.566585892
    4.480000000       4.573084774
    4.490000000       4.579792665
    4.500000000       4.586714943
    4.510000000       4.593857233
    4.520000000       4.601225417
    4.530000000       4.608825652
    4.540000000       4.616664386
    4.550000000       4.624748377
    4.560000000       4.633084710
    4.570000000       4.641680820
    4.580000000       4.650544516
    4.590000000       4.659684001
    4.600000000       4.669107904
    4.610000000       4.678825303
    4.620000000       4.688845764
    4.630000000       4.699179368
    4.640000000       4.709836751
    4.650000000       4.720829146
    4.660000000       4.732168426
    4.670000000       4.743867154
    4.680000000       4.755938634
    4.690000000       4.768396973
    4.700000000       4.781257142
    4.710000000       4.794535052
    4.720000000       4.808247629
    4.730000000       4.822412902
    4.740000000       4.837050103
    4.750000000       4.852179771
    4.760000000       4.867823873
    4.770000000       4.884005942
    4.780000000       4.900751221
    4.790000000       4.918086839
    4.800000000       4.936041997
    4.810000000       4.954648181
    4.820000000       4.973939412
    4.830000000       4.993952517
    4.840000000       5.014727445
    4.850000000       5.036307628
    4.860000000       5.058740397
    4.870000000       5.082077452
    4.880000000       5.106375417
    4.890000000       5.131696482
    4.900000000       5.158109142
    4.910000000       5.185689076
    4.920000000       5.214520175
    4.930000000       5.244695760
    4.940000000       5.276320031
    4.950000000       5.309509804
    4.960000000       5.344396602
    4.970000000       5.381129188
    4.980000000       5.419876672
    4.990000000       5.460832317
    5.000000000       5.504218285
    5.010000000       5.550291567
    5.020000000       5.599351498
    5.030000000       5.651749363
    5.040000000       5.707900828
    5.050000000       5.768302236
    5.060000000       5.833552280
    5.070000000       5.904381269
    5.080000000       5.981691375
    5.090000000       6.066613078
    5.100000000       6.160586116
    5.110000000       6.265478643
    5.120000000       6.383767856
    5.130000000       6.518823545
    5.140000000       6.675371834
    5.150000000       6.860292279
    5.160000000       7.084074204
    5.170000000       7.363691310
    5.180000000       7.728880490
    5.190000000       8.237909178
    5.200000000       9.026295298
    5.210000000      10.521184581
    5.220000000      15.679346023
    5.230000000       4.519302593
    5.240000000       4.275623864
    5.250000000       4.268222849
    5.260000000       4.284432054
    5.270000000       4.307652566
    5.280000000       4.334306539
    5.290000000       4.363287113
    5.300000000       4.394200860
    5.310000000       4.426919466
    5.320000000       4.461433665
    5.330000000       4.497797610
    5.340000000       4.536105595
    5.350000000       4.576482047
    5.360000000       4.619077660
    5.370000000       4.664068763
    5.380000000       4.711658655
    5.390000000       4.762080392
    5.400000000       4.815600856
    5.410000000       4.872526134
    5.420000000       4.933208404
    5.430000000       4.998054652
    5.440000000       5.067537685
    5.450000000       5.142210123
    5.460000000       5.222722318
    5.470000000       5.309845516
    5.480000000       5.404502165
    5.490000000       5.507806097
    5.500000000       5.621116615
    5.510000000       5.746112522
    5.520000000       5.884895424
    5.530000000       6.040136992
    5.540000000       6.215294173
    5.550000000       6.414932753
    5.560000000       6.645230241
    5.570000000       6.914788655
    5.580000000       7.236011431
    5.590000000       7.627574100
    5.600000000       8.119189513
    5.610000000       8.761700461
    5.620000000       9.651349264
    5.630000000      10.999937905
    5.640000000      13.408419530
    5.650000000      19.868363076
    5.660000000       3.626055463
    5.670000000       1.789150158
    5.680000000       1.689859305
    5.690000000       1.664503033
    5.700000000       1.655454885
    5.710000000       1.652117955
    5.720000000       1.651325058
    5.730000000       1.651853711
    5.740000000       1.653149262
    5.750000000       1.654930152
    5.760000000       1.657041142
    5.770000000       1.659391059
    5.780000000       1.661923656
    5.790000000       1.664602850
    5.800000000       1.667404775
    5.810000000       1.670313264
    5.820000000       1.673317179
    5.830000000       1.676408760
    5.840000000       1.679582581
    5.850000000       1.682834867
    5.860000000       1.686163039
    5.870000000       1.689565396
    5.880000000       1.693040901
    5.890000000       1.696589029
    5.900000000       1.700209648
    5.910000000       1.703902947
    5.920000000       1.707669368
    5.930000000       1.711509569
    5.940000000       1.715424386
    5.950000000       1.719414809
    5.960000000       1.723481964
    5.970000000       1.727627098
    5.980000000       1.731851567
    5.990000000       1.736156830
    6.000000000       1.740544443
