 ## written on  6Nov2020 at 15:02:53 
  -25.000000000       0.000000000
  -24.990000000       0.000000000
  -24.980000000       0.000000000
  -24.970000000       0.000000000
  -24.960000000       0.000000000
  -24.950000000       0.000000000
  -24.940000000       0.000000000
  -24.930000000       0.000000000
  -24.920000000       0.000000000
  -24.910000000       0.000000000
  -24.900000000       0.000000000
  -24.890000000       0.000000000
  -24.880000000       0.000000000
  -24.870000000       0.000000000
  -24.860000000       0.000000000
  -24.850000000       0.000000000
  -24.840000000       0.000000000
  -24.830000000       0.000000000
  -24.820000000       0.000000000
  -24.810000000       0.000000000
  -24.800000000       0.000000000
  -24.790000000       0.000000000
  -24.780000000       0.000000000
  -24.770000000       0.000000000
  -24.760000000       0.000000000
  -24.750000000       0.000000000
  -24.740000000       0.000000000
  -24.730000000       0.000000000
  -24.720000000       0.000000000
  -24.710000000       0.000000000
  -24.700000000       0.000000000
  -24.690000000       0.000000000
  -24.680000000       0.000000000
  -24.670000000       0.000000000
  -24.660000000       0.000000000
  -24.650000000       0.000000000
  -24.640000000       0.000000000
  -24.630000000       0.000000000
  -24.620000000       0.000000000
  -24.610000000       0.000000000
  -24.600000000       0.000000000
  -24.590000000       0.000000000
  -24.580000000       0.000000000
  -24.570000000       0.000000000
  -24.560000000       0.000000000
  -24.550000000       0.000000000
  -24.540000000       0.000000000
  -24.530000000       0.000000000
  -24.520000000       0.000000000
  -24.510000000       0.000000000
  -24.500000000       0.000000000
  -24.490000000       0.000000000
  -24.480000000       0.000000000
  -24.470000000       0.000000000
  -24.460000000       0.000000000
  -24.450000000       0.000000000
  -24.440000000       0.000000000
  -24.430000000       0.000000000
  -24.420000000       0.000000000
  -24.410000000       0.000000000
  -24.400000000       0.000000000
  -24.390000000       0.000000000
  -24.380000000       0.000000000
  -24.370000000       0.000000000
  -24.360000000       0.000000000
  -24.350000000       0.000000000
  -24.340000000       0.000000000
  -24.330000000       0.000000000
  -24.320000000       0.000000000
  -24.310000000       0.000000000
  -24.300000000       0.000000000
  -24.290000000       0.000000000
  -24.280000000       0.000000000
  -24.270000000       0.000000000
  -24.260000000       0.000000000
  -24.250000000       0.000000000
  -24.240000000       0.000000000
  -24.230000000       0.000000000
  -24.220000000       0.000000000
  -24.210000000       0.000000000
  -24.200000000       0.000000000
  -24.190000000       0.000000000
  -24.180000000       0.000000000
  -24.170000000       0.000000000
  -24.160000000       0.000000000
  -24.150000000       0.000000000
  -24.140000000       0.000000000
  -24.130000000       0.000000000
  -24.120000000       0.000000000
  -24.110000000       0.000000000
  -24.100000000       0.000000000
  -24.090000000       0.000000000
  -24.080000000       0.000000000
  -24.070000000       0.000000000
  -24.060000000       0.000000000
  -24.050000000       0.000000000
  -24.040000000       0.000000000
  -24.030000000       0.000000000
  -24.020000000       0.000000000
  -24.010000000       0.000000000
  -24.000000000       0.000000000
  -23.990000000       0.000000000
  -23.980000000       0.000000000
  -23.970000000       0.000000000
  -23.960000000       0.000000000
  -23.950000000       0.000000000
  -23.940000000       0.000000000
  -23.930000000       0.000000000
  -23.920000000       0.000000000
  -23.910000000       0.000000000
  -23.900000000       0.000000000
  -23.890000000       0.000000000
  -23.880000000       0.000000000
  -23.870000000       0.000000000
  -23.860000000       0.000000000
  -23.850000000       0.000000000
  -23.840000000       0.000000000
  -23.830000000       0.000000000
  -23.820000000       0.000000000
  -23.810000000       0.000000000
  -23.800000000       0.000000000
  -23.790000000       0.000000000
  -23.780000000       0.000000000
  -23.770000000       0.000000000
  -23.760000000       0.000000000
  -23.750000000       0.000000000
  -23.740000000       0.000000000
  -23.730000000       0.000000000
  -23.720000000       0.000000000
  -23.710000000       0.000000000
  -23.700000000       0.000000000
  -23.690000000       0.000000000
  -23.680000000       0.000000000
  -23.670000000       0.000000000
  -23.660000000       0.000000000
  -23.650000000       0.000000000
  -23.640000000       0.000000000
  -23.630000000       0.000000000
  -23.620000000       0.000000000
  -23.610000000       0.000000000
  -23.600000000       0.000000000
  -23.590000000       0.000000000
  -23.580000000       0.000000000
  -23.570000000       0.000000000
  -23.560000000       0.000000000
  -23.550000000       0.000000000
  -23.540000000       0.000000000
  -23.530000000       0.000000000
  -23.520000000       0.000000000
  -23.510000000       0.000000000
  -23.500000000       0.000000000
  -23.490000000       0.000000000
  -23.480000000       0.000000000
  -23.470000000       0.000000000
  -23.460000000       0.000000000
  -23.450000000       0.000000000
  -23.440000000       0.000000000
  -23.430000000       0.000000000
  -23.420000000       0.000000000
  -23.410000000       0.000000000
  -23.400000000       0.000000000
  -23.390000000       0.000000000
  -23.380000000       0.000000000
  -23.370000000       0.000000000
  -23.360000000       0.000000000
  -23.350000000       0.000000000
  -23.340000000       0.000000000
  -23.330000000       0.000000000
  -23.320000000       0.000000000
  -23.310000000       0.000000000
  -23.300000000       0.000000000
  -23.290000000       0.000000000
  -23.280000000       0.000000000
  -23.270000000       0.000000000
  -23.260000000       0.000000000
  -23.250000000       0.000000000
  -23.240000000       0.000000000
  -23.230000000       0.000000000
  -23.220000000       0.000000000
  -23.210000000       0.000000000
  -23.200000000       0.000000000
  -23.190000000       0.000000000
  -23.180000000       0.000000000
  -23.170000000       0.000000000
  -23.160000000       0.000000000
  -23.150000000       0.000000000
  -23.140000000       0.000000000
  -23.130000000       0.000000000
  -23.120000000       0.000000000
  -23.110000000       0.000000000
  -23.100000000       0.000000000
  -23.090000000       0.000000000
  -23.080000000       0.000000000
  -23.070000000       0.000000000
  -23.060000000       0.000000000
  -23.050000000       0.000000000
  -23.040000000       0.000000000
  -23.030000000       0.000000000
  -23.020000000       0.000000000
  -23.010000000       0.000000000
  -23.000000000       0.000000000
  -22.990000000       0.000000000
  -22.980000000       0.000000000
  -22.970000000       0.000000000
  -22.960000000       0.000000000
  -22.950000000       0.000000000
  -22.940000000       0.000000000
  -22.930000000       0.000000000
  -22.920000000       0.000000000
  -22.910000000       0.000000000
  -22.900000000       0.000000000
  -22.890000000       0.000000000
  -22.880000000       0.000000000
  -22.870000000       0.000000000
  -22.860000000       0.000000000
  -22.850000000       0.000000000
  -22.840000000       0.000000000
  -22.830000000       0.000000000
  -22.820000000       0.000000000
  -22.810000000       0.000000000
  -22.800000000       0.000000000
  -22.790000000       0.000000000
  -22.780000000       0.000000000
  -22.770000000       0.000000000
  -22.760000000       0.000000000
  -22.750000000       0.000000000
  -22.740000000       0.000000000
  -22.730000000       0.000000000
  -22.720000000       0.000000000
  -22.710000000       0.000000000
  -22.700000000       0.000000000
  -22.690000000       0.000000000
  -22.680000000       0.000000000
  -22.670000000       0.000000000
  -22.660000000       0.000000000
  -22.650000000       0.000000000
  -22.640000000       0.000000000
  -22.630000000       0.000000000
  -22.620000000       0.000000000
  -22.610000000       0.000000000
  -22.600000000       0.000000000
  -22.590000000       0.000000000
  -22.580000000       0.000000000
  -22.570000000       0.000000000
  -22.560000000       0.000000000
  -22.550000000       0.000000000
  -22.540000000       0.000000000
  -22.530000000       0.000000000
  -22.520000000       0.000000000
  -22.510000000       0.000000000
  -22.500000000       0.000000000
  -22.490000000       0.000000000
  -22.480000000       0.000000000
  -22.470000000       0.000000000
  -22.460000000       0.000000000
  -22.450000000       0.000000000
  -22.440000000       0.000000000
  -22.430000000       0.000000000
  -22.420000000       0.000000000
  -22.410000000       0.000000000
  -22.400000000       0.000000000
  -22.390000000       0.000000000
  -22.380000000       0.000000000
  -22.370000000       0.000000000
  -22.360000000       0.000000000
  -22.350000000       0.000000000
  -22.340000000       0.000000000
  -22.330000000       0.000000000
  -22.320000000       0.000000000
  -22.310000000       0.000000000
  -22.300000000       0.000000000
  -22.290000000       0.000000000
  -22.280000000       0.000000000
  -22.270000000       0.000000000
  -22.260000000       0.000000000
  -22.250000000       0.000000000
  -22.240000000       0.000000000
  -22.230000000       0.000000000
  -22.220000000       0.000000000
  -22.210000000       0.000000000
  -22.200000000       0.000000000
  -22.190000000       0.000000000
  -22.180000000       0.000000000
  -22.170000000       0.000000000
  -22.160000000       0.000000000
  -22.150000000       0.000000000
  -22.140000000       0.000000000
  -22.130000000       0.000000000
  -22.120000000       0.000000000
  -22.110000000       0.000000000
  -22.100000000       0.000000000
  -22.090000000       0.000000000
  -22.080000000       0.000000000
  -22.070000000       0.000000000
  -22.060000000       0.000000000
  -22.050000000       0.000000000
  -22.040000000       0.000000000
  -22.030000000       0.000000000
  -22.020000000       0.000000000
  -22.010000000       0.000000000
  -22.000000000       0.000000000
  -21.990000000       0.000000000
  -21.980000000       0.000000000
  -21.970000000       0.000000000
  -21.960000000       0.000000000
  -21.950000000       0.000000000
  -21.940000000       0.000000000
  -21.930000000       0.000000000
  -21.920000000       0.000000000
  -21.910000000       0.000000000
  -21.900000000       0.000000000
  -21.890000000       0.000000000
  -21.880000000       0.000000000
  -21.870000000       0.000000000
  -21.860000000       0.000000000
  -21.850000000       0.000000000
  -21.840000000       0.000000000
  -21.830000000       0.000000000
  -21.820000000       0.000000000
  -21.810000000       0.000000000
  -21.800000000       0.000000000
  -21.790000000       0.000000000
  -21.780000000       0.000000000
  -21.770000000       0.000000000
  -21.760000000       0.000000000
  -21.750000000       0.000000000
  -21.740000000       0.000000000
  -21.730000000       0.000000000
  -21.720000000       0.000000000
  -21.710000000       0.000000000
  -21.700000000       0.000000000
  -21.690000000       0.000000000
  -21.680000000       0.000000000
  -21.670000000       0.000000000
  -21.660000000       0.000000000
  -21.650000000       0.000000000
  -21.640000000       0.000000000
  -21.630000000       0.000000000
  -21.620000000       0.000000000
  -21.610000000       0.000000000
  -21.600000000       0.000000000
  -21.590000000       0.000000000
  -21.580000000       0.000000000
  -21.570000000       0.000000000
  -21.560000000       0.000000000
  -21.550000000       0.000000000
  -21.540000000       0.000000000
  -21.530000000       0.000000000
  -21.520000000       0.000000000
  -21.510000000       0.000000000
  -21.500000000       0.000000000
  -21.490000000       0.000000000
  -21.480000000       0.000000000
  -21.470000000       0.000000000
  -21.460000000       0.000000000
  -21.450000000       0.000000000
  -21.440000000       0.000000000
  -21.430000000       0.000000000
  -21.420000000       0.000000000
  -21.410000000       0.000000000
  -21.400000000       0.000000000
  -21.390000000       0.000000000
  -21.380000000       0.000000000
  -21.370000000       0.000000000
  -21.360000000       0.000000000
  -21.350000000       0.000000000
  -21.340000000       0.000000000
  -21.330000000       0.000000000
  -21.320000000       0.000000000
  -21.310000000       0.000000000
  -21.300000000       0.000000000
  -21.290000000       0.000000000
  -21.280000000       0.000000000
  -21.270000000       0.000000000
  -21.260000000       0.000000000
  -21.250000000       0.000000000
  -21.240000000       0.000000000
  -21.230000000       0.000000000
  -21.220000000       0.000000000
  -21.210000000       0.000000000
  -21.200000000       0.000000000
  -21.190000000       0.000000000
  -21.180000000       0.000000000
  -21.170000000       0.000000000
  -21.160000000       0.000000000
  -21.150000000       0.000000000
  -21.140000000       0.000000000
  -21.130000000       0.000000000
  -21.120000000       0.000000000
  -21.110000000       0.000000000
  -21.100000000       0.000000000
  -21.090000000       0.000000000
  -21.080000000       0.000000000
  -21.070000000       0.000000000
  -21.060000000       0.000000000
  -21.050000000       0.000000000
  -21.040000000       0.000000000
  -21.030000000       0.000000000
  -21.020000000       0.000000000
  -21.010000000       0.000000000
  -21.000000000       0.000000000
  -20.990000000       0.000000000
  -20.980000000       0.000000000
  -20.970000000       0.000000000
  -20.960000000       0.000000000
  -20.950000000       0.000000000
  -20.940000000       0.000000000
  -20.930000000       0.000000000
  -20.920000000       0.000000000
  -20.910000000       0.000000000
  -20.900000000       0.000000000
  -20.890000000       0.000000000
  -20.880000000       0.000000000
  -20.870000000       0.000000000
  -20.860000000       0.000000000
  -20.850000000       0.000000000
  -20.840000000       0.000000000
  -20.830000000       0.000000000
  -20.820000000       0.000000000
  -20.810000000       0.000000000
  -20.800000000       0.000000000
  -20.790000000       0.000000000
  -20.780000000       0.000000000
  -20.770000000       0.000000000
  -20.760000000       0.000000000
  -20.750000000       0.000000000
  -20.740000000       0.000000000
  -20.730000000       0.000000000
  -20.720000000       0.000000000
  -20.710000000       0.000000000
  -20.700000000       0.000000000
  -20.690000000       0.000000000
  -20.680000000       0.000000000
  -20.670000000       0.000000000
  -20.660000000       0.000000000
  -20.650000000       0.000000000
  -20.640000000       0.000000000
  -20.630000000       0.000000000
  -20.620000000       0.000000000
  -20.610000000       0.000000000
  -20.600000000       0.000000000
  -20.590000000       0.000000000
  -20.580000000       0.000000000
  -20.570000000       0.000000000
  -20.560000000       0.000000000
  -20.550000000       0.000000000
  -20.540000000       0.000000000
  -20.530000000       0.000000000
  -20.520000000       0.000000000
  -20.510000000       0.000000000
  -20.500000000       0.000000000
  -20.490000000       0.000000000
  -20.480000000       0.000000000
  -20.470000000       0.000000000
  -20.460000000       0.000000001
  -20.450000000       0.000000001
  -20.440000000       0.000000001
  -20.430000000       0.000000001
  -20.420000000       0.000000002
  -20.410000000       0.000000002
  -20.400000000       0.000000003
  -20.390000000       0.000000004
  -20.380000000       0.000000006
  -20.370000000       0.000000009
  -20.360000000       0.000000012
  -20.350000000       0.000000018
  -20.340000000       0.000000027
  -20.330000000       0.000000041
  -20.320000000       0.000000065
  -20.310000000       0.000000106
  -20.300000000       0.000000183
  -20.290000000       0.000000333
  -20.280000000       0.000000655
  -20.270000000       0.000001438
  -20.260000000       0.000003709
  -20.250000000       0.000012565
  -20.240000000       0.000076125
  -20.230000000       0.006324921
  -20.220000000       0.999362863
  -20.210000000       0.999946669
  -20.200000000       0.999993632
  -20.190000000       0.999999802
  -20.180000000       0.999999592
  -20.170000000       0.999998438
  -20.160000000       0.999997428
  -20.150000000       0.999996747
  -20.140000000       0.999996366
  -20.130000000       0.999996219
  -20.120000000       0.999996240
  -20.110000000       0.999996377
  -20.100000000       0.999996590
  -20.090000000       0.999996848
  -20.080000000       0.999997131
  -20.070000000       0.999997421
  -20.060000000       0.999997709
  -20.050000000       0.999997986
  -20.040000000       0.999998248
  -20.030000000       0.999998491
  -20.020000000       0.999998713
  -20.010000000       0.999998915
  -20.000000000       0.999999095
  -19.990000000       0.999999254
  -19.980000000       0.999999394
  -19.970000000       0.999999515
  -19.960000000       0.999999619
  -19.950000000       0.999999707
  -19.940000000       0.999999780
  -19.930000000       0.999999841
  -19.920000000       0.999999889
  -19.910000000       0.999999927
  -19.900000000       0.999999955
  -19.890000000       0.999999976
  -19.880000000       0.999999990
  -19.870000000       0.999999997
  -19.860000000       1.000000000
  -19.850000000       0.999999998
  -19.840000000       0.999999994
  -19.830000000       0.999999986
  -19.820000000       0.999999976
  -19.810000000       0.999999965
  -19.800000000       0.999999953
  -19.790000000       0.999999940
  -19.780000000       0.999999926
  -19.770000000       0.999999913
  -19.760000000       0.999999900
  -19.750000000       0.999999888
  -19.740000000       0.999999876
  -19.730000000       0.999999865
  -19.720000000       0.999999855
  -19.710000000       0.999999846
  -19.700000000       0.999999839
  -19.690000000       0.999999832
  -19.680000000       0.999999826
  -19.670000000       0.999999822
  -19.660000000       0.999999819
  -19.650000000       0.999999816
  -19.640000000       0.999999815
  -19.630000000       0.999999815
  -19.620000000       0.999999816
  -19.610000000       0.999999818
  -19.600000000       0.999999820
  -19.590000000       0.999999824
  -19.580000000       0.999999828
  -19.570000000       0.999999832
  -19.560000000       0.999999838
  -19.550000000       0.999999843
  -19.540000000       0.999999849
  -19.530000000       0.999999856
  -19.520000000       0.999999862
  -19.510000000       0.999999869
  -19.500000000       0.999999877
  -19.490000000       0.999999884
  -19.480000000       0.999999891
  -19.470000000       0.999999898
  -19.460000000       0.999999905
  -19.450000000       0.999999912
  -19.440000000       0.999999919
  -19.430000000       0.999999926
  -19.420000000       0.999999933
  -19.410000000       0.999999939
  -19.400000000       0.999999945
  -19.390000000       0.999999951
  -19.380000000       0.999999956
  -19.370000000       0.999999962
  -19.360000000       0.999999967
  -19.350000000       0.999999971
  -19.340000000       0.999999975
  -19.330000000       0.999999979
  -19.320000000       0.999999983
  -19.310000000       0.999999986
  -19.300000000       0.999999989
  -19.290000000       0.999999992
  -19.280000000       0.999999994
  -19.270000000       0.999999997
  -19.260000000       0.999999999
  -19.250000000       1.000000000
  -19.240000000       1.000000002
  -19.230000000       1.000000004
  -19.220000000       1.000000006
  -19.210000000       1.000000009
  -19.200000000       1.000000012
  -19.190000000       1.000000017
  -19.180000000       1.000000024
  -19.170000000       1.000000035
  -19.160000000       1.000000052
  -19.150000000       1.000000081
  -19.140000000       1.000000130
  -19.130000000       1.000000217
  -19.120000000       1.000000381
  -19.110000000       1.000000711
  -19.100000000       1.000001436
  -19.090000000       1.000003254
  -19.080000000       1.000008783
  -19.070000000       1.000032211
  -19.060000000       1.000238193
  -19.050000000       1.374709191
  -19.040000000       2.999281835
  -19.030000000       2.999930272
  -19.020000000       2.999992739
  -19.010000000       2.999999960
  -19.000000000       2.999998443
  -18.990000000       2.999995954
  -18.980000000       2.999994003
  -18.970000000       2.999992773
  -18.960000000       2.999992153
  -18.950000000       2.999991991
  -18.940000000       2.999992150
  -18.930000000       2.999992524
  -18.920000000       2.999993034
  -18.910000000       2.999993620
  -18.900000000       2.999994240
  -18.890000000       2.999994866
  -18.880000000       2.999995475
  -18.870000000       2.999996055
  -18.860000000       2.999996595
  -18.850000000       2.999997092
  -18.840000000       2.999997542
  -18.830000000       2.999997946
  -18.820000000       2.999998302
  -18.810000000       2.999998614
  -18.800000000       2.999998883
  -18.790000000       2.999999108
  -18.780000000       2.999999271
  -18.770000000       2.999998194
  -18.760000000       2.999994484
  -18.750000000       2.999999656
  -18.740000000       2.999999790
  -18.730000000       2.999999861
  -18.720000000       2.999999908
  -18.710000000       2.999999939
  -18.700000000       2.999999957
  -18.690000000       2.999999963
  -18.680000000       2.999999960
  -18.670000000       2.999999949
  -18.660000000       2.999999933
  -18.650000000       2.999999912
  -18.640000000       2.999999888
  -18.630000000       2.999999862
  -18.620000000       2.999999835
  -18.610000000       2.999999807
  -18.600000000       2.999999780
  -18.590000000       2.999999753
  -18.580000000       2.999999728
  -18.570000000       2.999999704
  -18.560000000       2.999999683
  -18.550000000       2.999999663
  -18.540000000       2.999999647
  -18.530000000       2.999999632
  -18.520000000       2.999999620
  -18.510000000       2.999999611
  -18.500000000       2.999999604
  -18.490000000       2.999999599
  -18.480000000       2.999999597
  -18.470000000       2.999999597
  -18.460000000       2.999999599
  -18.450000000       2.999999604
  -18.440000000       2.999999610
  -18.430000000       2.999999618
  -18.420000000       2.999999627
  -18.410000000       2.999999638
  -18.400000000       2.999999650
  -18.390000000       2.999999663
  -18.380000000       2.999999676
  -18.370000000       2.999999691
  -18.360000000       2.999999706
  -18.350000000       2.999999722
  -18.340000000       2.999999737
  -18.330000000       2.999999753
  -18.320000000       2.999999770
  -18.310000000       2.999999785
  -18.300000000       2.999999801
  -18.290000000       2.999999817
  -18.280000000       2.999999832
  -18.270000000       2.999999847
  -18.260000000       2.999999861
  -18.250000000       2.999999875
  -18.240000000       2.999999888
  -18.230000000       2.999999900
  -18.220000000       2.999999911
  -18.210000000       2.999999922
  -18.200000000       2.999999932
  -18.190000000       2.999999942
  -18.180000000       2.999999950
  -18.170000000       2.999999958
  -18.160000000       2.999999965
  -18.150000000       2.999999968
  -18.140000000       2.999999900
  -18.130000000       2.999990101
  -18.120000000       2.999999973
  -18.110000000       2.999999987
  -18.100000000       2.999999991
  -18.090000000       2.999999993
  -18.080000000       2.999999994
  -18.070000000       2.999999994
  -18.060000000       2.999999994
  -18.050000000       2.999999994
  -18.040000000       2.999999993
  -18.030000000       2.999999991
  -18.020000000       2.999999989
  -18.010000000       2.999999987
  -18.000000000       2.999999984
  -17.990000000       2.999999981
  -17.980000000       2.999999978
  -17.970000000       2.999999974
  -17.960000000       2.999999971
  -17.950000000       2.999999967
  -17.940000000       2.999999963
  -17.930000000       2.999999959
  -17.920000000       2.999999954
  -17.910000000       2.999999950
  -17.900000000       2.999999946
  -17.890000000       2.999999942
  -17.880000000       2.999999937
  -17.870000000       2.999999933
  -17.860000000       2.999999929
  -17.850000000       2.999999925
  -17.840000000       2.999999921
  -17.830000000       2.999999918
  -17.820000000       2.999999914
  -17.810000000       2.999999911
  -17.800000000       2.999999908
  -17.790000000       2.999999905
  -17.780000000       2.999999902
  -17.770000000       2.999999900
  -17.760000000       2.999999897
  -17.750000000       2.999999895
  -17.740000000       2.999999893
  -17.730000000       2.999999892
  -17.720000000       2.999999890
  -17.710000000       2.999999889
  -17.700000000       2.999999887
  -17.690000000       2.999999886
  -17.680000000       2.999999884
  -17.670000000       2.999999882
  -17.660000000       2.999999877
  -17.650000000       2.999999863
  -17.640000000       2.999999795
  -17.630000000       2.999997609
  -17.620000000       2.999984101
  -17.610000000       2.999999738
  -17.600000000       2.999999862
  -17.590000000       2.999999883
  -17.580000000       2.999999891
  -17.570000000       2.999999896
  -17.560000000       2.999999899
  -17.550000000       2.999999902
  -17.540000000       2.999999905
  -17.530000000       2.999999908
  -17.520000000       2.999999911
  -17.510000000       2.999999914
  -17.500000000       2.999999917
  -17.490000000       2.999999920
  -17.480000000       2.999999923
  -17.470000000       2.999999926
  -17.460000000       2.999999929
  -17.450000000       2.999999932
  -17.440000000       2.999999935
  -17.430000000       2.999999938
  -17.420000000       2.999999941
  -17.410000000       2.999999944
  -17.400000000       2.999999947
  -17.390000000       2.999999950
  -17.380000000       2.999999953
  -17.370000000       2.999999956
  -17.360000000       2.999999959
  -17.350000000       2.999999962
  -17.340000000       2.999999965
  -17.330000000       2.999999967
  -17.320000000       2.999999970
  -17.310000000       2.999999972
  -17.300000000       2.999999975
  -17.290000000       2.999999977
  -17.280000000       2.999999979
  -17.270000000       2.999999981
  -17.260000000       2.999999983
  -17.250000000       2.999999985
  -17.240000000       2.999999987
  -17.230000000       2.999999988
  -17.220000000       2.999999990
  -17.210000000       2.999999991
  -17.200000000       2.999999993
  -17.190000000       2.999999994
  -17.180000000       2.999999995
  -17.170000000       2.999999996
  -17.160000000       2.999999996
  -17.150000000       2.999999997
  -17.140000000       2.999999998
  -17.130000000       2.999999998
  -17.120000000       2.999999998
  -17.110000000       2.999999999
  -17.100000000       2.999999999
  -17.090000000       2.999999999
  -17.080000000       2.999999999
  -17.070000000       2.999999998
  -17.060000000       2.999999998
  -17.050000000       2.999999998
  -17.040000000       2.999999997
  -17.030000000       2.999999997
  -17.020000000       2.999999996
  -17.010000000       2.999999995
  -17.000000000       2.999999994
  -16.990000000       2.999999993
  -16.980000000       2.999999992
  -16.970000000       2.999999991
  -16.960000000       2.999999990
  -16.950000000       2.999999989
  -16.940000000       2.999999988
  -16.930000000       2.999999987
  -16.920000000       2.999999985
  -16.910000000       2.999999984
  -16.900000000       2.999999982
  -16.890000000       2.999999981
  -16.880000000       2.999999980
  -16.870000000       2.999999978
  -16.860000000       2.999999977
  -16.850000000       2.999999975
  -16.840000000       2.999999974
  -16.830000000       2.999999972
  -16.820000000       2.999999971
  -16.810000000       2.999999969
  -16.800000000       2.999999968
  -16.790000000       2.999999966
  -16.780000000       2.999999965
  -16.770000000       2.999999963
  -16.760000000       2.999999962
  -16.750000000       2.999999960
  -16.740000000       2.999999959
  -16.730000000       2.999999958
  -16.720000000       2.999999956
  -16.710000000       2.999999955
  -16.700000000       2.999999954
  -16.690000000       2.999999953
  -16.680000000       2.999999951
  -16.670000000       2.999999950
  -16.660000000       2.999999949
  -16.650000000       2.999999948
  -16.640000000       2.999999947
  -16.630000000       2.999999946
  -16.620000000       2.999999945
  -16.610000000       2.999999945
  -16.600000000       2.999999944
  -16.590000000       2.999999943
  -16.580000000       2.999999943
  -16.570000000       2.999999942
  -16.560000000       2.999999942
  -16.550000000       2.999999942
  -16.540000000       2.999999942
  -16.530000000       2.999999943
  -16.520000000       2.999999944
  -16.510000000       2.999999946
  -16.500000000       2.999999948
  -16.490000000       2.999999953
  -16.480000000       2.999999959
  -16.470000000       2.999999969
  -16.460000000       2.999999986
  -16.450000000       3.000000013
  -16.440000000       3.000000058
  -16.430000000       3.000000139
  -16.420000000       3.000000291
  -16.410000000       3.000000597
  -16.400000000       3.000001270
  -16.390000000       3.000002962
  -16.380000000       3.000008120
  -16.370000000       3.000029970
  -16.360000000       3.000219940
  -16.350000000       3.215129885
  -16.340000000       4.999263045
  -16.330000000       4.999932995
  -16.320000000       4.999993881
  -16.310000000       4.999999928
  -16.300000000       4.999997838
  -16.290000000       4.999995117
  -16.280000000       4.999993117
  -16.270000000       4.999991936
  -16.260000000       4.999991412
  -16.250000000       4.999991366
  -16.240000000       4.999991646
  -16.230000000       4.999992136
  -16.220000000       4.999992750
  -16.210000000       4.999982691
  -16.200000000       4.999994133
  -16.190000000       4.999994827
  -16.180000000       4.999995492
  -16.170000000       4.999996116
  -16.160000000       4.999996690
  -16.150000000       4.999997211
  -16.140000000       4.999997678
  -16.130000000       4.999998091
  -16.120000000       4.999998451
  -16.110000000       4.999998762
  -16.100000000       4.999999028
  -16.090000000       4.999999251
  -16.080000000       4.999999435
  -16.070000000       4.999999585
  -16.060000000       4.999999704
  -16.050000000       4.999999796
  -16.040000000       4.999999864
  -16.030000000       4.999999911
  -16.020000000       4.999999941
  -16.010000000       4.999999955
  -16.000000000       4.999999956
  -15.990000000       4.999999925
  -15.980000000       4.999986957
  -15.970000000       4.999999689
  -15.960000000       4.999999881
  -15.950000000       4.999999858
  -15.940000000       4.999999827
  -15.930000000       4.999999795
  -15.920000000       4.999999763
  -15.910000000       4.999999732
  -15.900000000       4.999999702
  -15.890000000       4.999999674
  -15.880000000       4.999999648
  -15.870000000       4.999999624
  -15.860000000       4.999999604
  -15.850000000       4.999999586
  -15.840000000       4.999999572
  -15.830000000       4.999999560
  -15.820000000       4.999999552
  -15.810000000       4.999999546
  -15.800000000       4.999999543
  -15.790000000       4.999999543
  -15.780000000       4.999999546
  -15.770000000       4.999999551
  -15.760000000       4.999999558
  -15.750000000       4.999999567
  -15.740000000       4.999999578
  -15.730000000       4.999999590
  -15.720000000       4.999999604
  -15.710000000       4.999999620
  -15.700000000       4.999999636
  -15.690000000       4.999999653
  -15.680000000       4.999999670
  -15.670000000       4.999999688
  -15.660000000       4.999999706
  -15.650000000       4.999999725
  -15.640000000       4.999999743
  -15.630000000       4.999999761
  -15.620000000       4.999999778
  -15.610000000       4.999999795
  -15.600000000       4.999999811
  -15.590000000       4.999999827
  -15.580000000       4.999999841
  -15.570000000       4.999999855
  -15.560000000       4.999999867
  -15.550000000       4.999999878
  -15.540000000       4.999999887
  -15.530000000       4.999999895
  -15.520000000       4.999999902
  -15.510000000       4.999999906
  -15.500000000       4.999999908
  -15.490000000       4.999999909
  -15.480000000       4.999999906
  -15.470000000       4.999999901
  -15.460000000       4.999999893
  -15.450000000       4.999999881
  -15.440000000       4.999999865
  -15.430000000       4.999999844
  -15.420000000       4.999999818
  -15.410000000       4.999999786
  -15.400000000       4.999999745
  -15.390000000       4.999999696
  -15.380000000       4.999999635
  -15.370000000       4.999999560
  -15.360000000       4.999999467
  -15.350000000       4.999999353
  -15.340000000       4.999999210
  -15.330000000       4.999999030
  -15.320000000       4.999998802
  -15.310000000       4.999998508
  -15.300000000       4.999998125
  -15.290000000       4.999997617
  -15.280000000       4.999996928
  -15.270000000       4.999995972
  -15.260000000       4.999994604
  -15.250000000       4.999992567
  -15.240000000       4.999989386
  -15.230000000       4.999984081
  -15.220000000       4.999974393
  -15.210000000       4.999954132
  -15.200000000       4.999901106
  -15.190000000       4.999682810
  -15.180000000       4.995138343
  -15.170000000       4.001068453
  -15.160000000       4.000135667
  -15.150000000       4.000045824
  -15.140000000       4.000021611
  -15.130000000       4.000012092
  -15.120000000       4.000007508
  -15.110000000       4.000004998
  -15.100000000       4.000003495
  -15.090000000       4.000002535
  -15.080000000       4.000001890
  -15.070000000       4.000001438
  -15.060000000       4.000001112
  -15.050000000       4.000000869
  -15.040000000       4.000000685
  -15.030000000       4.000000540
  -15.020000000       4.000000422
  -15.010000000       4.000000311
  -15.000000000       4.000000092
  -14.990000000       3.999979206
  -14.980000000       3.999997536
  -14.970000000       4.000000028
  -14.960000000       4.000000074
  -14.950000000       4.000000063
  -14.940000000       4.000000047
  -14.930000000       4.000000031
  -14.920000000       4.000000017
  -14.910000000       4.000000005
  -14.900000000       3.999999995
  -14.890000000       3.999999987
  -14.880000000       3.999999980
  -14.870000000       3.999999975
  -14.860000000       3.999999971
  -14.850000000       3.999999968
  -14.840000000       3.999999965
  -14.830000000       3.999999964
  -14.820000000       3.999999963
  -14.810000000       3.999999963
  -14.800000000       3.999999964
  -14.790000000       3.999999965
  -14.780000000       3.999999966
  -14.770000000       3.999999968
  -14.760000000       3.999999970
  -14.750000000       3.999999972
  -14.740000000       3.999999975
  -14.730000000       3.999999978
  -14.720000000       3.999999981
  -14.710000000       3.999999984
  -14.700000000       3.999999987
  -14.690000000       3.999999991
  -14.680000000       3.999999994
  -14.670000000       3.999999998
  -14.660000000       4.000000001
  -14.650000000       4.000000005
  -14.640000000       4.000000008
  -14.630000000       4.000000012
  -14.620000000       4.000000015
  -14.610000000       4.000000018
  -14.600000000       4.000000021
  -14.590000000       4.000000024
  -14.580000000       4.000000026
  -14.570000000       4.000000029
  -14.560000000       4.000000030
  -14.550000000       4.000000032
  -14.540000000       4.000000033
  -14.530000000       4.000000033
  -14.520000000       4.000000033
  -14.510000000       4.000000031
  -14.500000000       4.000000029
  -14.490000000       4.000000026
  -14.480000000       4.000000021
  -14.470000000       4.000000015
  -14.460000000       4.000000007
  -14.450000000       3.999999997
  -14.440000000       3.999999985
  -14.430000000       3.999999969
  -14.420000000       3.999999950
  -14.410000000       3.999999927
  -14.400000000       3.999999899
  -14.390000000       3.999999865
  -14.380000000       3.999999824
  -14.370000000       3.999999774
  -14.360000000       3.999999714
  -14.350000000       3.999999640
  -14.340000000       3.999999552
  -14.330000000       3.999999444
  -14.320000000       3.999999311
  -14.310000000       3.999999149
  -14.300000000       3.999998948
  -14.290000000       3.999998697
  -14.280000000       3.999998383
  -14.270000000       3.999997984
  -14.260000000       3.999997473
  -14.250000000       3.999996810
  -14.240000000       3.999995934
  -14.230000000       3.999994758
  -14.220000000       3.999993141
  -14.210000000       3.999990858
  -14.200000000       3.999987522
  -14.190000000       3.999982434
  -14.180000000       3.999974224
  -14.170000000       3.999959920
  -14.160000000       3.999932085
  -14.150000000       3.999867690
  -14.140000000       3.999664144
  -14.130000000       3.998277101
  -14.120000000       2.036415523
  -14.110000000       2.000591772
  -14.100000000       2.000147544
  -14.090000000       2.000061652
  -14.080000000       2.000032450
  -14.070000000       2.000019501
  -14.060000000       2.000012780
  -14.050000000       2.000008907
  -14.040000000       2.000006501
  -14.030000000       2.000004921
  -14.020000000       2.000003837
  -14.010000000       2.000003066
  -14.000000000       2.000002503
  -13.990000000       2.000002082
  -13.980000000       2.000001762
  -13.970000000       2.000001514
  -13.960000000       2.000001321
  -13.950000000       2.000001169
  -13.940000000       2.000001050
  -13.930000000       2.000000957
  -13.920000000       2.000000884
  -13.910000000       2.000000829
  -13.900000000       2.000000790
  -13.890000000       2.000000765
  -13.880000000       2.000000753
  -13.870000000       2.000000755
  -13.860000000       2.000000770
  -13.850000000       2.000000800
  -13.840000000       2.000000847
  -13.830000000       2.000000914
  -13.820000000       2.000001007
  -13.810000000       2.000001132
  -13.800000000       2.000001300
  -13.790000000       2.000001527
  -13.780000000       2.000001838
  -13.770000000       2.000002270
  -13.760000000       2.000002890
  -13.750000000       2.000003809
  -13.740000000       2.000005234
  -13.730000000       2.000007582
  -13.720000000       2.000011781
  -13.710000000       2.000020229
  -13.700000000       2.000040635
  -13.690000000       2.000109038
  -13.680000000       2.000618579
  -13.670000000       2.977653392
  -13.660000000       2.999562276
  -13.650000000       2.999880443
  -13.640000000       2.999947228
  -13.630000000       2.999971283
  -13.620000000       2.999982428
  -13.610000000       2.999988414
  -13.600000000       2.999991958
  -13.590000000       2.999994207
  -13.580000000       2.999995709
  -13.570000000       2.999996753
  -13.560000000       2.999997503
  -13.550000000       2.999998055
  -13.540000000       2.999998470
  -13.530000000       2.999998789
  -13.520000000       2.999999036
  -13.510000000       2.999999231
  -13.500000000       2.999999386
  -13.490000000       2.999999510
  -13.480000000       2.999999612
  -13.470000000       2.999999694
  -13.460000000       2.999999762
  -13.450000000       2.999999819
  -13.440000000       2.999999865
  -13.430000000       2.999999905
  -13.420000000       2.999999937
  -13.410000000       2.999999965
  -13.400000000       2.999999988
  -13.390000000       3.000000008
  -13.380000000       3.000000025
  -13.370000000       3.000000040
  -13.360000000       3.000000052
  -13.350000000       3.000000063
  -13.340000000       3.000000072
  -13.330000000       3.000000081
  -13.320000000       3.000000088
  -13.310000000       3.000000095
  -13.300000000       3.000000101
  -13.290000000       3.000000106
  -13.280000000       3.000000111
  -13.270000000       3.000000116
  -13.260000000       3.000000121
  -13.250000000       3.000000126
  -13.240000000       3.000000131
  -13.230000000       3.000000136
  -13.220000000       3.000000141
  -13.210000000       3.000000147
  -13.200000000       3.000000152
  -13.190000000       3.000000159
  -13.180000000       3.000000166
  -13.170000000       3.000000173
  -13.160000000       3.000000181
  -13.150000000       3.000000189
  -13.140000000       3.000000199
  -13.130000000       3.000000209
  -13.120000000       3.000000220
  -13.110000000       3.000000231
  -13.100000000       3.000000243
  -13.090000000       3.000000255
  -13.080000000       3.000000268
  -13.070000000       3.000000279
  -13.060000000       3.000000290
  -13.050000000       3.000000299
  -13.040000000       3.000000303
  -13.030000000       3.000000302
  -13.020000000       3.000000292
  -13.010000000       3.000000275
  -13.000000000       3.000000263
  -12.990000000       3.000000319
  -12.980000000       3.000000762
  -12.970000000       3.000003491
  -12.960000000       3.000027768
  -12.950000000       3.001204342
  -12.940000000       4.994671563
  -12.930000000       1.011877310
  -12.920000000       1.000326411
  -12.910000000       1.000076034
  -12.900000000       1.000032219
  -12.890000000       1.000019164
  -12.880000000       1.000014656
  -12.870000000       1.000013756
  -12.860000000       1.000015287
  -12.850000000       1.000019576
  -12.840000000       1.000028560
  -12.830000000       1.000048055
  -12.820000000       1.000098288
  -12.810000000       1.000285168
  -12.800000000       1.002242788
  -12.790000000       2.990663841
  -12.780000000       2.999371941
  -12.770000000       2.999803365
  -12.760000000       2.999908890
  -12.750000000       2.999949362
  -12.740000000       2.999968772
  -12.730000000       2.999979429
  -12.720000000       2.999985841
  -12.710000000       2.999989962
  -12.700000000       2.999992751
  -12.690000000       2.999994719
  -12.680000000       2.999996157
  -12.670000000       2.999997244
  -12.660000000       2.999998093
  -12.650000000       2.999998778
  -12.640000000       2.999999353
  -12.630000000       2.999999856
  -12.620000000       3.000000319
  -12.610000000       3.000000770
  -12.600000000       3.000001235
  -12.590000000       3.000001745
  -12.580000000       3.000002339
  -12.570000000       3.000003067
  -12.560000000       3.000004010
  -12.550000000       3.000005290
  -12.540000000       3.000007118
  -12.530000000       3.000009870
  -12.520000000       3.000014280
  -12.510000000       3.000021918
  -12.500000000       3.000036578
  -12.490000000       3.000069235
  -12.480000000       3.000161698
  -12.470000000       3.000580006
  -12.460000000       3.009460588
  -12.450000000       6.993292244
  -12.440000000       6.999223535
  -12.430000000       6.999754819
  -12.420000000       6.999893910
  -12.410000000       6.999946567
  -12.400000000       6.999970660
  -12.390000000       6.999982817
  -12.380000000       6.999986428
  -12.370000000       6.999993760
  -12.360000000       6.999996122
  -12.350000000       6.999997548
  -12.340000000       6.999998415
  -12.330000000       6.999998935
  -12.320000000       6.999999238
  -12.310000000       6.999999403
  -12.300000000       6.999999480
  -12.290000000       6.999999502
  -12.280000000       6.999999490
  -12.270000000       6.999999458
  -12.260000000       6.999999417
  -12.250000000       6.999999371
  -12.240000000       6.999999326
  -12.230000000       6.999999283
  -12.220000000       6.999999245
  -12.210000000       6.999999212
  -12.200000000       6.999999186
  -12.190000000       6.999999165
  -12.180000000       6.999999150
  -12.170000000       6.999999141
  -12.160000000       6.999999137
  -12.150000000       6.999999138
  -12.140000000       6.999999144
  -12.130000000       6.999999154
  -12.120000000       6.999999099
  -12.110000000       6.999999181
  -12.100000000       6.999999204
  -12.090000000       6.999999226
  -12.080000000       6.999999250
  -12.070000000       6.999999275
  -12.060000000       6.999999302
  -12.050000000       6.999999329
  -12.040000000       6.999999357
  -12.030000000       6.999999385
  -12.020000000       6.999999413
  -12.010000000       6.999999440
  -12.000000000       6.999999466
  -11.990000000       6.999999491
  -11.980000000       6.999999513
  -11.970000000       6.999999533
  -11.960000000       6.999999550
  -11.950000000       6.999999563
  -11.940000000       6.999999570
  -11.930000000       6.999999571
  -11.920000000       6.999999565
  -11.910000000       6.999999549
  -11.900000000       6.999999522
  -11.890000000       6.999999480
  -11.880000000       6.999999420
  -11.870000000       6.999999336
  -11.860000000       6.999999223
  -11.850000000       6.999999071
  -11.840000000       6.999998870
  -11.830000000       6.999998602
  -11.820000000       6.999998245
  -11.810000000       6.999997767
  -11.800000000       6.999997121
  -11.790000000       6.999996235
  -11.780000000       6.999994999
  -11.770000000       6.999993236
  -11.760000000       6.999990648
  -11.750000000       6.999986701
  -11.740000000       6.999980383
  -11.730000000       6.999969570
  -11.720000000       6.999949233
  -11.710000000       6.999905085
  -11.700000000       6.999782834
  -11.690000000       6.999216361
  -11.680000000       6.973044928
  -11.670000000       5.001292453
  -11.660000000       5.000202608
  -11.650000000       5.000071349
  -11.640000000       5.000034055
  -11.630000000       5.000019113
  -11.620000000       5.000011867
  -11.610000000       5.000007895
  -11.600000000       5.000005523
  -11.590000000       5.000004012
  -11.580000000       5.000003002
  -11.570000000       5.000002299
  -11.560000000       5.000001794
  -11.550000000       5.000001421
  -11.540000000       5.000001140
  -11.530000000       5.000000922
  -11.520000000       5.000000750
  -11.510000000       5.000000605
  -11.500000000       5.000000441
  -11.490000000       4.999999065
  -11.480000000       4.999659201
  -11.470000000       4.999999979
  -11.460000000       5.000000213
  -11.450000000       5.000000200
  -11.440000000       5.000000174
  -11.430000000       5.000000149
  -11.420000000       5.000000126
  -11.410000000       5.000000107
  -11.400000000       5.000000091
  -11.390000000       5.000000077
  -11.380000000       5.000000065
  -11.370000000       5.000000055
  -11.360000000       5.000000047
  -11.350000000       5.000000040
  -11.340000000       5.000000034
  -11.330000000       5.000000030
  -11.320000000       5.000000026
  -11.310000000       5.000000023
  -11.300000000       5.000000021
  -11.290000000       5.000000019
  -11.280000000       5.000000018
  -11.270000000       5.000000017
  -11.260000000       5.000000016
  -11.250000000       5.000000016
  -11.240000000       5.000000016
  -11.230000000       5.000000017
  -11.220000000       5.000000017
  -11.210000000       5.000000018
  -11.200000000       5.000000019
  -11.190000000       5.000000020
  -11.180000000       5.000000021
  -11.170000000       5.000000022
  -11.160000000       5.000000023
  -11.150000000       5.000000023
  -11.140000000       5.000000024
  -11.130000000       5.000000025
  -11.120000000       5.000000026
  -11.110000000       5.000000027
  -11.100000000       5.000000028
  -11.090000000       5.000000028
  -11.080000000       5.000000029
  -11.070000000       5.000000029
  -11.060000000       5.000000030
  -11.050000000       5.000000030
  -11.040000000       5.000000030
  -11.030000000       5.000000031
  -11.020000000       5.000000031
  -11.010000000       5.000000031
  -11.000000000       5.000000031
  -10.990000000       5.000000030
  -10.980000000       5.000000030
  -10.970000000       5.000000030
  -10.960000000       5.000000029
  -10.950000000       5.000000029
  -10.940000000       5.000000028
  -10.930000000       5.000000027
  -10.920000000       5.000000027
  -10.910000000       5.000000026
  -10.900000000       5.000000025
  -10.890000000       5.000000024
  -10.880000000       5.000000024
  -10.870000000       5.000000023
  -10.860000000       5.000000022
  -10.850000000       5.000000021
  -10.840000000       5.000000020
  -10.830000000       5.000000020
  -10.820000000       5.000000019
  -10.810000000       5.000000018
  -10.800000000       5.000000017
  -10.790000000       5.000000017
  -10.780000000       5.000000016
  -10.770000000       5.000000016
  -10.760000000       5.000000016
  -10.750000000       5.000000016
  -10.740000000       5.000000016
  -10.730000000       5.000000016
  -10.720000000       5.000000016
  -10.710000000       5.000000017
  -10.700000000       5.000000017
  -10.690000000       5.000000018
  -10.680000000       5.000000020
  -10.670000000       5.000000021
  -10.660000000       5.000000023
  -10.650000000       5.000000025
  -10.640000000       5.000000028
  -10.630000000       5.000000031
  -10.620000000       5.000000035
  -10.610000000       5.000000039
  -10.600000000       5.000000043
  -10.590000000       5.000000048
  -10.580000000       5.000000054
  -10.570000000       5.000000061
  -10.560000000       5.000000069
  -10.550000000       5.000000077
  -10.540000000       5.000000087
  -10.530000000       5.000000098
  -10.520000000       5.000000111
  -10.510000000       5.000000125
  -10.500000000       5.000000142
  -10.490000000       5.000000160
  -10.480000000       5.000000182
  -10.470000000       5.000000206
  -10.460000000       5.000000234
  -10.450000000       5.000000256
  -10.440000000       4.999999809
  -10.430000000       5.000000349
  -10.420000000       5.000000403
  -10.410000000       5.000000466
  -10.400000000       5.000000541
  -10.390000000       5.000000632
  -10.380000000       5.000000743
  -10.370000000       5.000000880
  -10.360000000       5.000001051
  -10.350000000       5.000001268
  -10.340000000       5.000001547
  -10.330000000       5.000001914
  -10.320000000       5.000002406
  -10.310000000       5.000003082
  -10.300000000       5.000004041
  -10.290000000       5.000005449
  -10.280000000       5.000007615
  -10.270000000       5.000011145
  -10.260000000       5.000017360
  -10.250000000       5.000029542
  -10.240000000       5.000057627
  -10.230000000       5.000142923
  -10.220000000       5.000611777
  -10.210000000       5.069272932
  -10.200000000       6.998475869
  -10.190000000       6.999687641
  -10.180000000       6.999875993
  -10.170000000       6.999936473
  -10.160000000       6.999962732
  -10.150000000       6.999976226
  -10.140000000       6.999983952
  -10.130000000       6.999988721
  -10.120000000       6.999991831
  -10.110000000       6.999993947
  -10.100000000       6.999995435
  -10.090000000       6.999996509
  -10.080000000       6.999997301
  -10.070000000       6.999997895
  -10.060000000       6.999998348
  -10.050000000       6.999998697
  -10.040000000       6.999998969
  -10.030000000       6.999999182
  -10.020000000       6.999999351
  -10.010000000       6.999999485
  -10.000000000       6.999999591
   -9.990000000       6.999999676
   -9.980000000       6.999999744
   -9.970000000       6.999999799
   -9.960000000       6.999999842
   -9.950000000       6.999999876
   -9.940000000       6.999999903
   -9.930000000       6.999999924
   -9.920000000       6.999999940
   -9.910000000       6.999999952
   -9.900000000       6.999999961
   -9.890000000       6.999999966
   -9.880000000       6.999999970
   -9.870000000       6.999999971
   -9.860000000       6.999999971
   -9.850000000       6.999999970
   -9.840000000       6.999999968
   -9.830000000       6.999999964
   -9.820000000       6.999999960
   -9.810000000       6.999999955
   -9.800000000       6.999999950
   -9.790000000       6.999999944
   -9.780000000       6.999999938
   -9.770000000       6.999999932
   -9.760000000       6.999999925
   -9.750000000       6.999999918
   -9.740000000       6.999999912
   -9.730000000       6.999999905
   -9.720000000       6.999999898
   -9.710000000       6.999999891
   -9.700000000       6.999999884
   -9.690000000       6.999999877
   -9.680000000       6.999999870
   -9.670000000       6.999999863
   -9.660000000       6.999999856
   -9.650000000       6.999999850
   -9.640000000       6.999999843
   -9.630000000       6.999999837
   -9.620000000       6.999999830
   -9.610000000       6.999999824
   -9.600000000       6.999999818
   -9.590000000       6.999999812
   -9.580000000       6.999999806
   -9.570000000       6.999999800
   -9.560000000       6.999999794
   -9.550000000       6.999999789
   -9.540000000       6.999999784
   -9.530000000       6.999999778
   -9.520000000       6.999999773
   -9.510000000       6.999999769
   -9.500000000       6.999999764
   -9.490000000       6.999999759
   -9.480000000       6.999999755
   -9.470000000       6.999999751
   -9.460000000       6.999999747
   -9.450000000       6.999999743
   -9.440000000       6.999999740
   -9.430000000       6.999999736
   -9.420000000       6.999999733
   -9.410000000       6.999999730
   -9.400000000       6.999999727
   -9.390000000       6.999999725
   -9.380000000       6.999999723
   -9.370000000       6.999999721
   -9.360000000       6.999999719
   -9.350000000       6.999999717
   -9.340000000       6.999999717
   -9.330000000       6.999999716
   -9.320000000       6.999999717
   -9.310000000       6.999999719
   -9.300000000       6.999999721
   -9.290000000       6.999999475
   -9.280000000       6.999913750
   -9.270000000       6.999999692
   -9.260000000       6.999999720
   -9.250000000       6.999999717
   -9.240000000       6.999999716
   -9.230000000       6.999999715
   -9.220000000       6.999999716
   -9.210000000       6.999999717
   -9.200000000       6.999999719
   -9.190000000       6.999999721
   -9.180000000       6.999999723
   -9.170000000       6.999999726
   -9.160000000       6.999999729
   -9.150000000       6.999999732
   -9.140000000       6.999999736
   -9.130000000       6.999999740
   -9.120000000       6.999999744
   -9.110000000       6.999999748
   -9.100000000       6.999999753
   -9.090000000       6.999999758
   -9.080000000       6.999999764
   -9.070000000       6.999999770
   -9.060000000       6.999999776
   -9.050000000       6.999999782
   -9.040000000       6.999999789
   -9.030000000       6.999999796
   -9.020000000       6.999999804
   -9.010000000       6.999999812
   -9.000000000       6.999999821
   -8.990000000       6.999999830
   -8.980000000       6.999999840
   -8.970000000       6.999999851
   -8.960000000       6.999999863
   -8.950000000       6.999999878
   -8.940000000       6.999999894
   -8.930000000       6.999999914
   -8.920000000       6.999999941
   -8.910000000       6.999999977
   -8.900000000       7.000000029
   -8.890000000       7.000000109
   -8.880000000       7.000000243
   -8.870000000       7.000000482
   -8.860000000       7.000000946
   -8.850000000       7.000001944
   -8.840000000       7.000004406
   -8.830000000       7.000011833
   -8.820000000       7.000043527
   -8.810000000       7.000341554
   -8.800000000       8.708000452
   -8.790000000       8.999364166
   -8.780000000       8.999919774
   -8.770000000       8.999986126
   -8.760000000       8.999988606
   -8.750000000       8.999999689
   -8.740000000       8.999998390
   -8.730000000       8.999996826
   -8.720000000       8.999995541
   -8.710000000       8.999994614
   -8.700000000       8.999993999
   -8.690000000       8.999993624
   -8.680000000       8.999993414
   -8.670000000       8.999993303
   -8.660000000       8.999993232
   -8.650000000       8.999993147
   -8.640000000       8.999992996
   -8.630000000       8.999992732
   -8.620000000       8.999992323
   -8.610000000       8.999991811
   -8.600000000       8.999991583
   -8.590000000       8.999993918
   -8.580000000       9.000016930
   -8.570000000       9.000549062
   -8.560000000       9.995512641
   -8.550000000       9.999820746
   -8.540000000       9.999857418
   -8.530000000       9.999663108
   -8.520000000       9.998185316
   -8.510000000       8.026458819
   -8.500000000       8.000518756
   -8.490000000       8.000125160
   -8.480000000       8.000048535
   -8.470000000       8.000022582
   -8.460000000       7.999998618
   -8.450000000       8.000005357
   -8.440000000       8.000002597
   -8.430000000       8.000000878
   -8.420000000       7.999999887
   -8.410000000       7.999999330
   -8.400000000       7.999999027
   -8.390000000       7.999592487
   -8.380000000       7.999998855
   -8.370000000       7.999998891
   -8.360000000       7.999998943
   -8.350000000       7.999998981
   -8.340000000       7.999998532
   -8.330000000       7.998138712
   -8.320000000       7.999998985
   -8.310000000       7.999999324
   -8.300000000       7.999999419
   -8.290000000       7.999999485
   -8.280000000       7.999999537
   -8.270000000       7.999999580
   -8.260000000       7.999999614
   -8.250000000       7.999999643
   -8.240000000       7.999999666
   -8.230000000       7.999999684
   -8.220000000       7.999999699
   -8.210000000       7.999999711
   -8.200000000       7.999999720
   -8.190000000       7.999999725
   -8.180000000       7.999999724
   -8.170000000       7.999999717
   -8.160000000       7.999999697
   -8.150000000       7.999999658
   -8.140000000       7.999999590
   -8.130000000       7.999999476
   -8.120000000       7.999999292
   -8.110000000       7.999999000
   -8.100000000       7.999998537
   -8.090000000       7.999997804
   -8.080000000       7.999996628
   -8.070000000       7.999994706
   -8.060000000       7.999991466
   -8.050000000       7.999985744
   -8.040000000       7.999974930
   -8.030000000       7.999952260
   -8.020000000       7.999896027
   -8.010000000       7.999705493
   -8.000000000       7.998285983
   -7.990000000       6.024622477
   -7.980000000       6.000402936
   -7.970000000       6.000090575
   -7.960000000       6.000034597
   -7.950000000       6.000016818
   -7.940000000       6.000009402
   -7.930000000       6.000005762
   -7.920000000       6.000003772
   -7.910000000       6.000002595
   -7.900000000       6.000001859
   -7.890000000       6.000001377
   -7.880000000       6.000001051
   -7.870000000       6.000000824
   -7.860000000       6.000000664
   -7.850000000       6.000000551
   -7.840000000       6.000000469
   -7.830000000       6.000000412
   -7.820000000       6.000000374
   -7.810000000       6.000000350
   -7.800000000       6.000000337
   -7.790000000       6.000000336
   -7.780000000       6.000000344
   -7.770000000       6.000000361
   -7.760000000       6.000000387
   -7.750000000       6.000000424
   -7.740000000       6.000000471
   -7.730000000       6.000000532
   -7.720000000       6.000000608
   -7.710000000       6.000000703
   -7.700000000       6.000000824
   -7.690000000       6.000000974
   -7.680000000       6.000001142
   -7.670000000       5.999999120
   -7.660000000       5.999984869
   -7.650000000       6.000002108
   -7.640000000       6.000002754
   -7.630000000       6.000003585
   -7.620000000       6.000004796
   -7.610000000       6.000006641
   -7.600000000       6.000009614
   -7.590000000       6.000014764
   -7.580000000       6.000024625
   -7.570000000       6.000046535
   -7.560000000       6.000108692
   -7.550000000       6.000397028
   -7.540000000       6.008467451
   -7.530000000       7.997340019
   -7.520000000       7.999606132
   -7.510000000       7.926860993
   -7.500000000       7.999931236
   -7.490000000       7.999961503
   -7.480000000       7.999976241
   -7.470000000       7.999984413
   -7.460000000       7.999989325
   -7.450000000       7.999992455
   -7.440000000       7.999994536
   -7.430000000       7.999995968
   -7.420000000       7.999996978
   -7.410000000       7.999997706
   -7.400000000       7.999998239
   -7.390000000       7.999998634
   -7.380000000       7.999998930
   -7.370000000       7.999999153
   -7.360000000       7.999999321
   -7.350000000       7.999999448
   -7.340000000       7.999999544
   -7.330000000       7.999999616
   -7.320000000       7.999999670
   -7.310000000       7.999999710
   -7.300000000       7.999999741
   -7.290000000       7.999999764
   -7.280000000       7.999999784
   -7.270000000       7.999999806
   -7.260000000       7.999999836
   -7.250000000       7.999999889
   -7.240000000       8.000000002
   -7.230000000       8.000000293
   -7.220000000       8.000001253
   -7.210000000       8.000005875
   -7.200000000       8.000052771
   -7.190000000       8.012121917
   -7.180000000       9.999686275
   -7.170000000       9.999703071
   -7.160000000       9.992226113
   -7.150000000       6.002844816
   -7.140000000       6.000137831
   -7.130000000       6.000029232
   -7.120000000       6.000009946
   -7.110000000       6.000004269
   -7.100000000       6.000002081
   -7.090000000       6.000001078
   -7.080000000       6.000000556
   -7.070000000       6.000000258
   -7.060000000       6.000000072
   -7.050000000       5.999999947
   -7.040000000       5.999999857
   -7.030000000       5.999999788
   -7.020000000       5.999999733
   -7.010000000       5.999999685
   -7.000000000       5.999999642
   -6.990000000       5.999999603
   -6.980000000       5.999999566
   -6.970000000       5.999999529
   -6.960000000       5.999999493
   -6.950000000       5.999999457
   -6.940000000       5.999999420
   -6.930000000       5.999999383
   -6.920000000       5.999999345
   -6.910000000       5.999999305
   -6.900000000       5.999999262
   -6.890000000       5.999999212
   -6.880000000       5.999999132
   -6.870000000       5.999998693
   -6.860000000       5.999832649
   -6.850000000       5.999994858
   -6.840000000       5.999998856
   -6.830000000       5.999998928
   -6.820000000       5.999998898
   -6.810000000       5.999998853
   -6.800000000       5.999998803
   -6.790000000       5.999998752
   -6.780000000       5.999998699
   -6.770000000       5.999998644
   -6.760000000       5.999998589
   -6.750000000       5.999998532
   -6.740000000       5.999998475
   -6.730000000       5.999998416
   -6.720000000       5.999998347
   -6.710000000       5.999998171
   -6.700000000       5.999977493
   -6.690000000       5.999994498
   -6.680000000       5.999998063
   -6.670000000       5.999998074
   -6.660000000       5.999998030
   -6.650000000       5.999997983
   -6.640000000       5.999997936
   -6.630000000       5.999997890
   -6.620000000       5.999997842
   -6.610000000       5.999997767
   -6.600000000       5.999996903
   -6.590000000       5.999990042
   -6.580000000       5.999997667
   -6.570000000       5.999997750
   -6.560000000       5.999997784
   -6.550000000       5.999997826
   -6.540000000       5.999997891
   -6.530000000       5.999997996
   -6.520000000       5.999998170
   -6.510000000       5.999998482
   -6.500000000       5.999999113
   -6.490000000       6.000000645
   -6.480000000       6.000005489
   -6.470000000       6.000029478
   -6.460000000       6.000396880
   -6.450000000       6.995056328
   -6.440000000       6.999848096
   -6.430000000       6.999980173
   -6.420000000       6.999997588
   -6.410000000       6.999999766
   -6.400000000       6.999999143
   -6.390000000       6.999998086
   -6.380000000       6.999997003
   -6.370000000       6.999995763
   -6.360000000       6.999993949
   -6.350000000       6.999990771
   -6.340000000       6.999984676
   -6.330000000       6.999972257
   -6.320000000       6.999944980
   -6.310000000       6.999877058
   -6.300000000       6.999663391
   -6.290000000       6.998522323
   -6.280000000       6.905195997
   -6.270000000       3.001515622
   -6.260000000       3.000209188
   -6.250000000       3.000063980
   -6.240000000       3.000026679
   -6.230000000       3.000013199
   -6.220000000       3.000007340
   -6.210000000       3.000004502
   -6.200000000       3.000003048
   -6.190000000       3.000002304
   -6.180000000       3.000001964
   -6.170000000       3.000001885
   -6.160000000       3.000002008
   -6.150000000       3.000002323
   -6.140000000       3.000002866
   -6.130000000       3.000003731
   -6.120000000       3.000005103
   -6.110000000       3.000007360
   -6.100000000       3.000011309
   -6.090000000       3.000018879
   -6.080000000       3.000035525
   -6.070000000       3.000081233
   -6.060000000       3.000273643
   -6.050000000       3.003232331
   -6.040000000       4.995069841
   -6.030000000       4.999502717
   -6.020000000       4.999841042
   -6.010000000       4.999926999
   -6.000000000       4.999960324
   -5.990000000       4.999976193
   -5.980000000       4.999984755
   -5.970000000       4.999989776
   -5.960000000       4.999992902
   -5.950000000       4.999994933
   -5.940000000       4.999996297
   -5.930000000       4.999997237
   -5.920000000       4.999997898
   -5.910000000       4.999998369
   -5.900000000       4.999998706
   -5.890000000       4.999998888
   -5.880000000       4.999962781
   -5.870000000       4.999998590
   -5.860000000       4.999999383
   -5.850000000       4.999999488
   -5.840000000       4.999999559
   -5.830000000       4.999999615
   -5.820000000       4.999999661
   -5.810000000       4.999999699
   -5.800000000       4.999999731
   -5.790000000       4.999999756
   -5.780000000       4.999999777
   -5.770000000       4.999999794
   -5.760000000       4.999999807
   -5.750000000       4.999999816
   -5.740000000       4.999999822
   -5.730000000       4.999999825
   -5.720000000       4.999999825
   -5.710000000       4.999999822
   -5.700000000       4.999999817
   -5.690000000       4.999999809
   -5.680000000       4.999999798
   -5.670000000       4.999999785
   -5.660000000       4.999999771
   -5.650000000       4.999999753
   -5.640000000       4.999999734
   -5.630000000       4.999999713
   -5.620000000       4.999999690
   -5.610000000       4.999999173
   -5.600000000       4.999999634
   -5.590000000       4.999999611
   -5.580000000       4.999999581
   -5.570000000       4.999999543
   -5.560000000       4.999999301
   -5.550000000       4.999938206
   -5.540000000       4.999999406
   -5.530000000       4.999999414
   -5.520000000       4.999999381
   -5.510000000       4.999999346
   -5.500000000       4.999999309
   -5.490000000       4.999999273
   -5.480000000       4.999999236
   -5.470000000       4.999999200
   -5.460000000       4.999999164
   -5.450000000       4.999999128
   -5.440000000       4.999999094
   -5.430000000       4.999999061
   -5.420000000       4.999999029
   -5.410000000       4.999999000
   -5.400000000       4.999998972
   -5.390000000       4.999998947
   -5.380000000       4.999998924
   -5.370000000       4.999998905
   -5.360000000       4.999998890
   -5.350000000       4.999998879
   -5.340000000       4.999998872
   -5.330000000       4.999998871
   -5.320000000       4.999998875
   -5.310000000       4.999998886
   -5.300000000       4.999998904
   -5.290000000       4.999998929
   -5.280000000       4.999998962
   -5.270000000       4.999999004
   -5.260000000       4.999999055
   -5.250000000       4.999999116
   -5.240000000       4.999999187
   -5.230000000       4.999999268
   -5.220000000       4.999999358
   -5.210000000       4.999999457
   -5.200000000       4.999999562
   -5.190000000       4.999999670
   -5.180000000       4.999999773
   -5.170000000       4.999999861
   -5.160000000       4.999999915
   -5.150000000       4.999999907
   -5.140000000       4.999999785
   -5.130000000       4.999999465
   -5.120000000       4.999998795
   -5.110000000       4.999997496
   -5.100000000       4.999995020
   -5.090000000       4.999990219
   -5.080000000       4.999980407
   -5.070000000       4.999958329
   -5.060000000       4.999899376
   -5.050000000       4.999678910
   -5.040000000       4.997584478
   -5.030000000       3.007482392
   -5.020000000       2.977926463
   -5.010000000       3.000064251
   -5.000000000       3.000025414
   -4.990000000       3.000012913
   -4.980000000       3.000007915
   -4.970000000       3.000005746
   -4.960000000       3.000004912
   -4.950000000       3.000004886
   -4.940000000       3.000005524
   -4.930000000       3.000006916
   -4.920000000       3.000009406
   -4.910000000       3.000013788
   -4.900000000       3.000021886
   -4.890000000       3.000038376
   -4.880000000       3.000077693
   -4.870000000       3.000200728
   -4.860000000       3.000887192
   -4.850000000       3.062528111
   -4.840000000       6.996697462
   -4.830000000       6.999408273
   -4.820000000       6.999785660
   -4.810000000       6.999899249
   -4.800000000       6.999945839
   -4.790000000       6.999968461
   -4.780000000       6.999980536
   -4.770000000       6.999987677
   -4.760000000       6.999992025
   -4.750000000       6.999994728
   -4.740000000       6.999996469
   -4.730000000       6.999997606
   -4.720000000       6.999998354
   -4.710000000       6.999998845
   -4.700000000       6.999999163
   -4.690000000       6.999999363
   -4.680000000       6.999999483
   -4.670000000       6.999999547
   -4.660000000       6.999999574
   -4.650000000       6.999999574
   -4.640000000       6.999999557
   -4.630000000       6.999999518
   -4.620000000       6.999999169
   -4.610000000       6.999954096
   -4.600000000       6.999999368
   -4.590000000       6.999999384
   -4.580000000       6.999999353
   -4.570000000       6.999999321
   -4.560000000       6.999999291
   -4.550000000       6.999999264
   -4.540000000       6.999999240
   -4.530000000       6.999999219
   -4.520000000       6.999999202
   -4.510000000       6.999999187
   -4.500000000       6.999999176
   -4.490000000       6.999999167
   -4.480000000       6.999999161
   -4.470000000       6.999999158
   -4.460000000       6.999999157
   -4.450000000       6.999999158
   -4.440000000       6.999999161
   -4.430000000       6.999999165
   -4.420000000       6.999999171
   -4.410000000       6.999999178
   -4.400000000       6.999999187
   -4.390000000       6.999999196
   -4.380000000       6.999999205
   -4.370000000       6.999999215
   -4.360000000       6.999999226
   -4.350000000       6.999999235
   -4.340000000       6.999999245
   -4.330000000       6.999999254
   -4.320000000       6.999999261
   -4.310000000       6.999999268
   -4.300000000       6.999999272
   -4.290000000       6.999999275
   -4.280000000       6.999999275
   -4.270000000       6.999999272
   -4.260000000       6.999999266
   -4.250000000       6.999999256
   -4.240000000       6.999999241
   -4.230000000       6.999999221
   -4.220000000       6.999999194
   -4.210000000       6.999999161
   -4.200000000       6.999999119
   -4.190000000       6.999999068
   -4.180000000       6.999999006
   -4.170000000       6.999998931
   -4.160000000       6.999998843
   -4.150000000       6.999998737
   -4.140000000       6.999998612
   -4.130000000       6.999998465
   -4.120000000       6.999998292
   -4.110000000       6.999998088
   -4.100000000       6.999997848
   -4.090000000       6.999997566
   -4.080000000       6.999997235
   -4.070000000       6.999996848
   -4.060000000       6.999996394
   -4.050000000       6.999995865
   -4.040000000       6.999995255
   -4.030000000       6.999994567
   -4.020000000       6.999993827
   -4.010000000       6.999993125
   -4.000000000       6.999992722
   -3.990000000       6.999993349
   -3.980000000       6.999996899
   -3.970000000       6.999999316
   -3.960000000       6.997475121
   -3.950000000       5.000421866
   -3.940000000       5.000026967
   -3.930000000       5.000005922
   -3.920000000       5.000001942
   -3.910000000       5.000000734
   -3.900000000       5.000000257
   -3.890000000       5.000000034
   -3.880000000       4.999999915
   -3.870000000       4.999999846
   -3.860000000       4.999999803
   -3.850000000       4.999999774
   -3.840000000       4.999999753
   -3.830000000       4.999999737
   -3.820000000       4.999999725
   -3.810000000       4.999999715
   -3.800000000       4.999999707
   -3.790000000       4.999999700
   -3.780000000       4.999999694
   -3.770000000       4.999999688
   -3.760000000       4.999999682
   -3.750000000       4.999999677
   -3.740000000       4.999999673
   -3.730000000       4.999999668
   -3.720000000       4.999999664
   -3.710000000       4.999999659
   -3.700000000       4.999999655
   -3.690000000       4.999999651
   -3.680000000       4.999999646
   -3.670000000       4.999999642
   -3.660000000       4.999999637
   -3.650000000       4.999999633
   -3.640000000       4.999999628
   -3.630000000       4.999999624
   -3.620000000       4.999999619
   -3.610000000       4.999999614
   -3.600000000       4.999999609
   -3.590000000       4.999999604
   -3.580000000       4.999999599
   -3.570000000       4.999999593
   -3.560000000       4.999999588
   -3.550000000       4.999999582
   -3.540000000       4.999999576
   -3.530000000       4.999999570
   -3.520000000       4.999999564
   -3.510000000       4.999999558
   -3.500000000       4.999999552
   -3.490000000       4.999999546
   -3.480000000       4.999999540
   -3.470000000       4.999999534
   -3.460000000       4.999999528
   -3.450000000       4.999999522
   -3.440000000       4.999999516
   -3.430000000       4.999999511
   -3.420000000       4.999999506
   -3.410000000       4.999999501
   -3.400000000       4.999999496
   -3.390000000       4.999999492
   -3.380000000       4.999999489
   -3.370000000       4.999999486
   -3.360000000       4.999999484
   -3.350000000       4.999999482
   -3.340000000       4.999999481
   -3.330000000       4.999999481
   -3.320000000       4.999999482
   -3.310000000       4.999999483
   -3.300000000       4.999999486
   -3.290000000       4.999999489
   -3.280000000       4.999999493
   -3.270000000       4.999999499
   -3.260000000       4.999999509
   -3.250000000       4.999999524
   -3.240000000       4.999999553
   -3.230000000       4.999999614
   -3.220000000       4.999999748
   -3.210000000       5.000000066
   -3.200000000       5.000000883
   -3.190000000       5.000003235
   -3.180000000       5.000011490
   -3.170000000       5.000053935
   -3.160000000       5.000666144
   -3.150000000       6.986638321
   -3.140000000       6.972330372
   -3.130000000       6.999943527
   -3.120000000       6.999961583
   -3.110000000       6.999853389
   -3.100000000       6.999724098
   -3.090000000       6.995787057
   -3.080000000       6.000877571
   -3.070000000       6.000053925
   -3.060000000       5.999997290
   -3.050000000       6.000002255
   -3.040000000       5.999997194
   -3.030000000       5.999995183
   -3.020000000       5.999994493
   -3.010000000       5.999994432
   -3.000000000       5.999994691
   -2.990000000       5.999995111
   -2.980000000       5.999995598
   -2.970000000       5.999996089
   -2.960000000       5.999996529
   -2.950000000       5.999996852
   -2.940000000       5.999996960
   -2.930000000       5.999996679
   -2.920000000       5.999995656
   -2.910000000       5.999993099
   -2.900000000       5.999987001
   -2.890000000       5.999971228
   -2.880000000       5.999920613
   -2.870000000       5.999647534
   -2.860000000       5.979144904
   -2.850000000       5.000356410
   -2.840000000       4.999979782
   -2.830000000       4.999987052
   -2.820000000       4.999978431
   -2.810000000       4.999952051
   -2.800000000       4.999884990
   -2.790000000       4.999569433
   -2.780000000       4.978078240
   -2.770000000       4.000573779
   -2.760000000       4.000096652
   -2.750000000       4.000034724
   -2.740000000       4.000016667
   -2.730000000       4.000009316
   -2.720000000       4.000005705
   -2.710000000       4.000003699
   -2.700000000       4.000002483
   -2.690000000       4.000001697
   -2.680000000       4.000001162
   -2.670000000       4.000000783
   -2.660000000       4.000000506
   -2.650000000       4.000000299
   -2.640000000       4.000000140
   -2.630000000       4.000000018
   -2.620000000       3.999999923
   -2.610000000       3.999999849
   -2.600000000       3.999999791
   -2.590000000       3.999999746
   -2.580000000       3.999999712
   -2.570000000       3.999999687
   -2.560000000       3.999999669
   -2.550000000       3.999999657
   -2.540000000       3.999999650
   -2.530000000       3.999999648
   -2.520000000       3.999999650
   -2.510000000       3.999999654
   -2.500000000       3.999999660
   -2.490000000       3.999999669
   -2.480000000       3.999999679
   -2.470000000       3.999999691
   -2.460000000       3.999999703
   -2.450000000       3.999999715
   -2.440000000       3.999999728
   -2.430000000       3.999999741
   -2.420000000       3.999999754
   -2.410000000       3.999999766
   -2.400000000       3.999999778
   -2.390000000       3.999999789
   -2.380000000       3.999999799
   -2.370000000       3.999999809
   -2.360000000       3.999999817
   -2.350000000       3.999999825
   -2.340000000       3.999999832
   -2.330000000       3.999999837
   -2.320000000       3.999999842
   -2.310000000       3.999999845
   -2.300000000       3.999999847
   -2.290000000       3.999999849
   -2.280000000       3.999999849
   -2.270000000       3.999999849
   -2.260000000       3.999999847
   -2.250000000       3.999999845
   -2.240000000       3.999999842
   -2.230000000       3.999999838
   -2.220000000       3.999999834
   -2.210000000       3.999999829
   -2.200000000       3.999999823
   -2.190000000       3.999999817
   -2.180000000       3.999999811
   -2.170000000       3.999999805
   -2.160000000       3.999999798
   -2.150000000       3.999999791
   -2.140000000       3.999999784
   -2.130000000       3.999999778
   -2.120000000       3.999999771
   -2.110000000       3.999999764
   -2.100000000       3.999999758
   -2.090000000       3.999999752
   -2.080000000       3.999999746
   -2.070000000       3.999999740
   -2.060000000       3.999999735
   -2.050000000       3.999999731
   -2.040000000       3.999999727
   -2.030000000       3.999999723
   -2.020000000       3.999999720
   -2.010000000       3.999999718
   -2.000000000       3.999999716
   -1.990000000       3.999999715
   -1.980000000       3.999999715
   -1.970000000       3.999999715
   -1.960000000       3.999999716
   -1.950000000       3.999999717
   -1.940000000       3.999999720
   -1.930000000       3.999999722
   -1.920000000       3.999999725
   -1.910000000       3.999999727
   -1.900000000       3.999999725
   -1.890000000       3.999999668
   -1.880000000       3.999953434
   -1.870000000       3.999999412
   -1.860000000       3.999999742
   -1.850000000       3.999999767
   -1.840000000       3.999999779
   -1.830000000       3.999999790
   -1.820000000       3.999999800
   -1.810000000       3.999999811
   -1.800000000       3.999999822
   -1.790000000       3.999999834
   -1.780000000       3.999999846
   -1.770000000       3.999999858
   -1.760000000       3.999999870
   -1.750000000       3.999999882
   -1.740000000       3.999999895
   -1.730000000       3.999999907
   -1.720000000       3.999999919
   -1.710000000       3.999999931
   -1.700000000       3.999999942
   -1.690000000       3.999999953
   -1.680000000       3.999999963
   -1.670000000       3.999999971
   -1.660000000       3.999999978
   -1.650000000       3.999999983
   -1.640000000       3.999999986
   -1.630000000       3.999999986
   -1.620000000       3.999999982
   -1.610000000       3.999999973
   -1.600000000       3.999999959
   -1.590000000       3.999999938
   -1.580000000       3.999999907
   -1.570000000       3.999999866
   -1.560000000       3.999999811
   -1.550000000       3.999999738
   -1.540000000       3.999999643
   -1.530000000       3.999999520
   -1.520000000       3.999999359
   -1.510000000       3.999999151
   -1.500000000       3.999998878
[...]
    0.130000000       1.000031545
    0.140000000       1.000013614
    0.150000000       1.000006995
    0.160000000       1.000004018
    0.170000000       1.000002496
    0.180000000       1.000001645
    0.190000000       1.000001135
    0.200000000       1.000000814
    0.210000000       1.000000605
    0.220000000       1.000000463
    0.230000000       1.000000365
    0.240000000       1.000000297
    0.250000000       1.000000249
    0.260000000       1.000000215
    0.270000000       1.000000191
    0.280000000       1.000000176
    0.290000000       1.000000166
    0.300000000       1.000000162
    0.310000000       1.000000162
    0.320000000       1.000000166
    0.330000000       1.000000174
    0.340000000       1.000000186
    0.350000000       1.000000201
    0.360000000       1.000000221
    0.370000000       1.000000246
    0.380000000       1.000000276
    0.390000000       1.000000313
    0.400000000       1.000000358
    0.410000000       1.000000413
    0.420000000       1.000000481
    0.430000000       1.000000565
    0.440000000       1.000000671
    0.450000000       1.000000806
    0.460000000       1.000000979
    0.470000000       1.000001206
    0.480000000       1.000001507
    0.490000000       1.000001918
    0.500000000       1.000002492
    0.510000000       1.000003319
    0.520000000       1.000004557
    0.530000000       1.000006498
    0.540000000       1.000009733
    0.550000000       1.000015574
    0.560000000       1.000027394
    0.570000000       1.000055855
    0.580000000       1.000148718
    0.590000000       1.000765366
    0.600000000       1.984420035
    0.610000000       2.998705761
    0.620000000       2.999719870
    0.630000000       2.999886827
    0.640000000       2.999941781
    0.650000000       2.999965928
    0.660000000       2.999978407
    0.670000000       2.999985565
    0.680000000       2.999989979
    0.690000000       2.999992850
    0.700000000       2.999994794
    0.710000000       2.999996152
    0.720000000       2.999997124
    0.730000000       2.999997834
    0.740000000       2.999998361
    0.750000000       2.999998757
    0.760000000       2.999999058
    0.770000000       2.999999287
    0.780000000       2.999999464
    0.790000000       2.999999599
    0.800000000       2.999999704
    0.810000000       2.999999784
    0.820000000       2.999999846
    0.830000000       2.999999892
    0.840000000       2.999999927
    0.850000000       2.999999952
    0.860000000       2.999999970
    0.870000000       2.999999982
    0.880000000       2.999999989
    0.890000000       2.999999992
    0.900000000       2.999999993
    0.910000000       2.999999991
    0.920000000       2.999999987
    0.930000000       2.999999981
    0.940000000       2.999999974
    0.950000000       2.999999967
    0.960000000       2.999999958
    0.970000000       2.999999950
    0.980000000       2.999999941
    0.990000000       2.999999932
    1.000000000       2.999999922
    1.010000000       2.999999913
    1.020000000       2.999999904
    1.030000000       2.999999895
    1.040000000       2.999999886
    1.050000000       2.999999877
    1.060000000       2.999999869
    1.070000000       2.999999861
    1.080000000       2.999999853
    1.090000000       2.999999846
    1.100000000       2.999999839
    1.110000000       2.999999832
    1.120000000       2.999999826
    1.130000000       2.999999819
    1.140000000       2.999999814
    1.150000000       2.999999808
    1.160000000       2.999999803
    1.170000000       2.999999799
    1.180000000       2.999999795
    1.190000000       2.999999791
    1.200000000       2.999999787
    1.210000000       2.999999784
    1.220000000       2.999999781
    1.230000000       2.999999778
    1.240000000       2.999999776
    1.250000000       2.999999774
    1.260000000       2.999999773
    1.270000000       2.999999771
    1.280000000       2.999999770
    1.290000000       2.999999769
    1.300000000       2.999999769
    1.310000000       2.999999769
    1.320000000       2.999999769
    1.330000000       2.999999769
    1.340000000       2.999999770
    1.350000000       2.999999771
    1.360000000       2.999999772
    1.370000000       2.999999773
    1.380000000       2.999999775
    1.390000000       2.999999777
    1.400000000       2.999999779
    1.410000000       2.999999781
    1.420000000       2.999999783
    1.430000000       2.999999786
    1.440000000       2.999999789
    1.450000000       2.999999792
    1.460000000       2.999999796
    1.470000000       2.999999799
    1.480000000       2.999999803
    1.490000000       2.999999807
    1.500000000       2.999999811
    1.510000000       2.999999816
    1.520000000       2.999999821
    1.530000000       2.999999826
    1.540000000       2.999999832
    1.550000000       2.999999838
    1.560000000       2.999999844
    1.570000000       2.999999851
    1.580000000       2.999999859
    1.590000000       2.999999868
    1.600000000       2.999999878
    1.610000000       2.999999889
    1.620000000       2.999999902
    1.630000000       2.999999918
    1.640000000       2.999999938
    1.650000000       2.999999962
    1.660000000       2.999999992
    1.670000000       3.000000032
    1.680000000       3.000000086
    1.690000000       3.000000161
    1.700000000       3.000000268
    1.710000000       3.000000428
    1.720000000       3.000000678
    1.730000000       3.000001088
    1.740000000       3.000001808
    1.750000000       3.000003178
    1.760000000       3.000006099
    1.770000000       3.000013428
    1.780000000       3.000037386
    1.790000000       3.000169373
    1.800000000       3.004662446
    1.810000000       4.997665131
    1.820000000       4.999791758
    1.830000000       4.999957426
    1.840000000       4.999989995
    1.850000000       4.999998039
    1.860000000       4.999999828
    1.870000000       4.999999861
    1.880000000       4.999999461
    1.890000000       4.999999043
    1.900000000       4.999998726
    1.910000000       4.999998528
    1.920000000       4.999998433
    1.930000000       4.999998420
    1.940000000       4.999998466
    1.950000000       4.999998552
    1.960000000       4.999998662
    1.970000000       4.999998786
    1.980000000       4.999998915
    1.990000000       4.999999043
    2.000000000       4.999999165
    2.010000000       4.999999280
    2.020000000       4.999999385
    2.030000000       4.999999480
    2.040000000       4.999999565
    2.050000000       4.999999639
    2.060000000       4.999999703
    2.070000000       4.999999758
    2.080000000       4.999999805
    2.090000000       4.999999844
    2.100000000       4.999999877
    2.110000000       4.999999904
    2.120000000       4.999999925
    2.130000000       4.999999943
    2.140000000       4.999999956
    2.150000000       4.999999967
    2.160000000       4.999999975
    2.170000000       4.999999981
    2.180000000       4.999999985
    2.190000000       4.999999987
    2.200000000       4.999999989
    2.210000000       4.999999990
    2.220000000       4.999999990
    2.230000000       4.999999990
    2.240000000       4.999999989
    2.250000000       4.999999989
    2.260000000       4.999999988
    2.270000000       4.999999986
    2.280000000       4.999999985
    2.290000000       4.999999984
    2.300000000       4.999999982
    2.310000000       4.999999981
    2.320000000       4.999999979
    2.330000000       4.999999978
    2.340000000       4.999999976
    2.350000000       4.999999974
    2.360000000       4.999999972
    2.370000000       4.999999970
    2.380000000       4.999999968
    2.390000000       4.999999965
    2.400000000       4.999999963
    2.410000000       4.999999960
    2.420000000       4.999999957
    2.430000000       4.999999954
    2.440000000       4.999999951
    2.450000000       4.999999948
    2.460000000       4.999999944
    2.470000000       4.999999941
    2.480000000       4.999999937
    2.490000000       4.999999934
    2.500000000       4.999999930
    2.510000000       4.999999926
    2.520000000       4.999999922
    2.530000000       4.999999919
    2.540000000       4.999999915
    2.550000000       4.999999912
    2.560000000       4.999999908
    2.570000000       4.999999905
    2.580000000       4.999999902
    2.590000000       4.999999899
    2.600000000       4.999999897
    2.610000000       4.999999895
    2.620000000       4.999999877
    2.630000000       4.999999749
    2.640000000       4.999999889
    2.650000000       4.999999887
    2.660000000       4.999999885
    2.670000000       4.999999883
    2.680000000       4.999999883
    2.690000000       4.999999882
    2.700000000       4.999999882
    2.710000000       4.999999882
    2.720000000       4.999999882
    2.730000000       4.999999883
    2.740000000       4.999999883
    2.750000000       4.999999884
    2.760000000       4.999999886
    2.770000000       4.999999887
    2.780000000       4.999999889
    2.790000000       4.999999891
    2.800000000       4.999999893
    2.810000000       4.999999895
    2.820000000       4.999999897
    2.830000000       4.999999899
    2.840000000       4.999999901
    2.850000000       4.999999904
    2.860000000       4.999999906
    2.870000000       4.999999909
    2.880000000       4.999999911
    2.890000000       4.999999913
    2.900000000       4.999999916
    2.910000000       4.999999918
    2.920000000       4.999999920
    2.930000000       4.999999922
    2.940000000       4.999999924
    2.950000000       4.999999926
    2.960000000       4.999999928
    2.970000000       4.999999929
    2.980000000       4.999999931
    2.990000000       4.999999932
    3.000000000       4.999999933
    3.010000000       4.999999934
    3.020000000       4.999999934
    3.030000000       4.999999934
    3.040000000       4.999999932
    3.050000000       4.999999926
    3.060000000       4.999999891
    3.070000000       4.999999349
    3.080000000       4.989317763
    3.090000000       4.999997902
    3.100000000       4.999999853
    3.110000000       4.999999918
    3.120000000       4.999999927
    3.130000000       4.999999928
    3.140000000       4.999999927
    3.150000000       4.999999925
    3.160000000       4.999999923
    3.170000000       4.999999920
    3.180000000       4.999999917
    3.190000000       4.999999914
    3.200000000       4.999999910
    3.210000000       4.999999905
    3.220000000       4.999999899
    3.230000000       4.999999891
    3.240000000       4.999999881
    3.250000000       4.999999869
    3.260000000       4.999999851
    3.270000000       4.999999827
    3.280000000       4.999999792
    3.290000000       4.999999739
    3.300000000       4.999999657
    3.310000000       4.999999522
    3.320000000       4.999999288
    3.330000000       4.999998854
    3.340000000       4.999997971
    3.350000000       4.999995947
    3.360000000       4.999990446
    3.370000000       4.999970892
    3.380000000       4.999856928
    3.390000000       4.997135400
    3.400000000       3.010465157
    3.410000000       3.411018169
    3.420000000       4.999488205
    3.430000000       4.999937224
    3.440000000       4.999983332
    3.450000000       4.999993737
    3.460000000       4.999997108
    3.470000000       4.999998462
    3.480000000       4.999999089
    3.490000000       4.999999411
    3.500000000       4.999999591
    3.510000000       4.999999697
    3.520000000       4.999999763
    3.530000000       4.999999806
    3.540000000       4.999999835
    3.550000000       4.999999856
    3.560000000       4.999999870
    3.570000000       4.999999881
    3.580000000       4.999999890
    3.590000000       4.999999896
    3.600000000       4.999999901
    3.610000000       4.999999905
    3.620000000       4.999999908
    3.630000000       4.999999911
    3.640000000       4.999999913
    3.650000000       4.999999915
    3.660000000       4.999999916
    3.670000000       4.999999916
    3.680000000       4.999999914
    3.690000000       4.999999908
    3.700000000       4.999999890
    3.710000000       4.999999830
    3.720000000       4.999999539
    3.730000000       4.999996452
    3.740000000       4.999141453
    3.750000000       4.999887803
    3.760000000       4.999998015
    3.770000000       4.999999655
    3.780000000       4.999999852
    3.790000000       4.999999897
    3.800000000       4.999999912
    3.810000000       4.999999917
    3.820000000       4.999999919
    3.830000000       4.999999919
    3.840000000       4.999999919
    3.850000000       4.999999918
    3.860000000       4.999999916
    3.870000000       4.999999915
    3.880000000       4.999999913
    3.890000000       4.999999911
    3.900000000       4.999999909
    3.910000000       4.999999907
    3.920000000       4.999999904
    3.930000000       4.999999902
    3.940000000       4.999999899
    3.950000000       4.999999896
    3.960000000       4.999999894
    3.970000000       4.999999891
    3.980000000       4.999999888
    3.990000000       4.999999885
    4.000000000       4.999999881
    4.010000000       4.999999878
    4.020000000       4.999999875
    4.030000000       4.999999872
    4.040000000       4.999999868
    4.050000000       4.999999865
    4.060000000       4.999999862
    4.070000000       4.999999859
    4.080000000       4.999999855
    4.090000000       4.999999852
    4.100000000       4.999999849
    4.110000000       4.999999846
    4.120000000       4.999999843
    4.130000000       4.999999839
    4.140000000       4.999999836
    4.150000000       4.999999834
    4.160000000       4.999999831
    4.170000000       4.999999828
    4.180000000       4.999999825
    4.190000000       4.999999823
    4.200000000       4.999999820
    4.210000000       4.999999818
    4.220000000       4.999999815
    4.230000000       4.999999812
    4.240000000       4.999999801
    4.250000000       4.999999371
    4.260000000       4.999999233
    4.270000000       4.999999796
    4.280000000       4.999999804
    4.290000000       4.999999804
    4.300000000       4.999999804
    4.310000000       4.999999803
    4.320000000       4.999999803
    4.330000000       4.999999802
    4.340000000       4.999999802
    4.350000000       4.999999801
    4.360000000       4.999999801
    4.370000000       4.999999801
    4.380000000       4.999999800
    4.390000000       4.999999800
    4.400000000       4.999999800
    4.410000000       4.999999800
    4.420000000       4.999999800
    4.430000000       4.999999800
    4.440000000       4.999999800
    4.450000000       4.999999800
    4.460000000       4.999999800
    4.470000000       4.999999800
    4.480000000       4.999999799
    4.490000000       4.999999799
    4.500000000       4.999999798
    4.510000000       4.999999797
    4.520000000       4.999999796
    4.530000000       4.999999795
    4.540000000       4.999999793
    4.550000000       4.999999791
    4.560000000       4.999999789
    4.570000000       4.999999787
    4.580000000       4.999999784
    4.590000000       4.999999780
    4.600000000       4.999999777
    4.610000000       4.999999772
    4.620000000       4.999999767
    4.630000000       4.999999762
    4.640000000       4.999999756
    4.650000000       4.999999750
    4.660000000       4.999999743
    4.670000000       4.999999735
    4.680000000       4.999999726
    4.690000000       4.999999717
    4.700000000       4.999999707
    4.710000000       4.999999697
    4.720000000       4.999999686
    4.730000000       4.999999674
    4.740000000       4.999999661
    4.750000000       4.999999647
    4.760000000       4.999999633
    4.770000000       4.999999618
    4.780000000       4.999999602
    4.790000000       4.999999586
    4.800000000       4.999999569
    4.810000000       4.999999551
    4.820000000       4.999999533
    4.830000000       4.999999514
    4.840000000       4.999999495
    4.850000000       4.999999476
    4.860000000       4.999999456
    4.870000000       4.999999436
    4.880000000       4.999999417
    4.890000000       4.999999397
    4.900000000       4.999999378
    4.910000000       4.999999360
    4.920000000       4.999999343
    4.930000000       4.999999326
    4.940000000       4.999999312
    4.950000000       4.999999299
    4.960000000       4.999999288
    4.970000000       4.999999280
    4.980000000       4.999999276
    4.990000000       4.999999274
    5.000000000       4.999999277
    5.010000000       4.999999285
    5.020000000       4.999999298
    5.030000000       4.999999317
    5.040000000       4.999999341
    5.050000000       4.999999373
    5.060000000       4.999999410
    5.070000000       4.999999453
    5.080000000       4.999999499
    5.090000000       4.999999545
    5.100000000       4.999999583
    5.110000000       4.999999602
    5.120000000       4.999999579
    5.130000000       4.999999474
    5.140000000       4.999999212
    5.150000000       4.999998651
    5.160000000       4.999997499
    5.170000000       4.999995116
    5.180000000       4.999989936
    5.190000000       4.999977455
    5.200000000       4.999941010
    5.210000000       4.999781428
    5.220000000       4.997058047
    5.230000000       4.000988296
    5.240000000       4.000077472
    5.250000000       4.000019781
    5.260000000       4.000007132
    5.270000000       4.000002855
    5.280000000       4.000001027
    5.290000000       4.000000116
    5.300000000       3.999999608
    5.310000000       3.999999298
    5.320000000       3.999999095
    5.330000000       3.999998954
    5.340000000       3.999998851
    5.350000000       3.999998774
    5.360000000       3.999998715
    5.370000000       3.999998671
    5.380000000       3.999998639
    5.390000000       3.999998618
    5.400000000       3.999998608
    5.410000000       3.999998609
    5.420000000       3.999998622
    5.430000000       3.999998647
    5.440000000       3.999998685
    5.450000000       3.999998737
    5.460000000       3.999998805
    5.470000000       3.999998889
    5.480000000       3.999998990
    5.490000000       3.999999108
    5.500000000       3.999999243
    5.510000000       3.999999391
    5.520000000       3.999999546
    5.530000000       3.999999699
    5.540000000       3.999999828
    5.550000000       3.999999897
    5.560000000       3.999999839
    5.570000000       3.999999533
    5.580000000       3.999998745
    5.590000000       3.999997005
    5.600000000       3.999993303
    5.610000000       3.999985244
    5.620000000       3.999966269
    5.630000000       3.999914005
    5.640000000       3.999715744
    5.650000000       3.997898784
    5.660000000       2.009520329
    5.670000000       2.000256425
    5.680000000       2.000055988
    5.690000000       2.000020155
    5.700000000       2.000009171
    5.710000000       2.000004782
    5.720000000       2.000002723
    5.730000000       2.000001646
    5.740000000       2.000001037
    5.750000000       2.000000671
    5.760000000       2.000000441
    5.770000000       2.000000292
    5.780000000       2.000000191
    5.790000000       2.000000122
    5.800000000       2.000000073
    5.810000000       2.000000039
    5.820000000       2.000000014
    5.830000000       1.999999996
    5.840000000       1.999999984
    5.850000000       1.999999975
    5.860000000       1.999999968
    5.870000000       1.999999964
    5.880000000       1.999999961
    5.890000000       1.999999960
    5.900000000       1.999999959
    5.910000000       1.999999959
    5.920000000       1.999999960
    5.930000000       1.999999961
    5.940000000       1.999999963
    5.950000000       1.999999965
    5.960000000       1.999999967
    5.970000000       1.999999969
    5.980000000       1.999999971
    5.990000000       1.999999974
    6.000000000       1.999999976
