 written on  6Nov2020 at 15:02:52 
          50
          11
    2    1    1    1    1    1    1    1    1    1    2
    0    0   -5    1    1    0.000041   -0.000000
    0    0   -5    2    1    0.000031    0.000000
    0    0   -5    3    1    0.000005   -0.000000
    0    0   -5    4    1   -0.000009   -0.000000
    0    0   -5    5    1    0.000038   -0.000000
    0    0   -5    6    1    0.000006    0.000000
    0    0   -5    7    1    0.000006   -0.000000
    0    0   -5    8    1   -0.000021   -0.000000
    0    0   -5    9    1   -0.000011    0.000000
    0    0   -5   10    1    0.000032   -0.000000
    0    0   -5   11    1    0.000001    0.000000
    0    0   -5   12    1   -0.000006    0.000000
    0    0   -5   13    1   -0.000004    0.000000
    0    0   -5   14    1    0.000004    0.000000
    0    0   -5   15    1    0.000009    0.000000
    0    0   -5   16    1    0.000002   -0.000000
    0    0   -5   17    1    0.000004    0.000000
    0    0   -5   18    1   -0.000001   -0.000000
    0    0   -5   19    1   -0.000024    0.000000
    0    0   -5   20    1   -0.000008    0.000000
    0    0   -5   21    1    0.000001    0.000000
    0    0   -5   22    1   -0.000006    0.000000
    0    0   -5   23    1   -0.000004    0.000000
    0    0   -5   24    1    0.000004    0.000000
    0    0   -5   25    1    0.000009    0.000000
    0    0   -5   26    1    0.000003   -0.000000
    0    0   -5   27    1    0.000004    0.000000
    0    0   -5   28    1   -0.000000   -0.000000
    0    0   -5   29    1   -0.000024   -0.000000
    0    0   -5   30    1   -0.000008    0.000000
    0    0   -5   31    1    0.000029    0.000000
    0    0   -5   32    1    0.000019    0.000000
    0    0   -5   33    1   -0.000032   -0.000000
    0    0   -5   34    1    0.000007    0.000000
    0    0   -5   35    1   -0.000007    0.000000
    0    0   -5   36    1    0.000001    0.000000
    0    0   -5   37    1   -0.000011   -0.000000
    0    0   -5   38    1    0.000001    0.000000
    0    0   -5   39    1   -0.000058   -0.000000
    0    0   -5   40    1   -0.000008    0.000000
    0    0   -5   41    1   -0.000059   -0.000000
    0    0   -5   42    1   -0.000009    0.000000
    0    0   -5   43    1    0.000050    0.000000
    0    0   -5   44    1    0.000017    0.000000
    0    0   -5   45    1   -0.000033   -0.000000
    0    0   -5   46    1    0.000006    0.000000
    0    0   -5   47    1   -0.000007   -0.000000
    0    0   -5   48    1    0.000001   -0.000000
    0    0   -5   49    1   -0.000011   -0.000000
    0    0   -5   50    1    0.000000   -0.000000
    0    0   -5    1    2    0.000031   -0.000000
    0    0   -5    2    2    0.000042   -0.000000
    0    0   -5    3    2    0.000038   -0.000000
    0    0   -5    4    2   -0.000045    0.000000
    0    0   -5    5    2   -0.000033    0.000000
    0    0   -5    6    2    0.000004   -0.000000
    0    0   -5    7    2    0.000032   -0.000000
    0    0   -5    8    2   -0.000010   -0.000000
    0    0   -5    9    2   -0.000022    0.000000
    0    0   -5   10    2    0.000007   -0.000000
    0    0   -5   11    2   -0.000008    0.000000
    0    0   -5   12    2   -0.000002   -0.000000
    0    0   -5   13    2   -0.000005   -0.000000
    0    0   -5   14    2   -0.000030   -0.000000
    0    0   -5   15    2    0.000006   -0.000000
    0    0   -5   16    2    0.000023    0.000000
    0    0   -5   17    2   -0.000018   -0.000000
    0    0   -5   18    2    0.000009    0.000000
    0    0   -5   19    2    0.000004   -0.000000
    0    0   -5   20    2   -0.000001   -0.000000
    0    0   -5   21    2   -0.000009   -0.000000
    0    0   -5   22    2   -0.000001    0.000000
    0    0   -5   23    2   -0.000005   -0.000000
    0    0   -5   24    2   -0.000029   -0.000000
    0    0   -5   25    2    0.000006   -0.000000
    0    0   -5   26    2    0.000023   -0.000000
    0    0   -5   27    2   -0.000018    0.000000
    0    0   -5   28    2    0.000009   -0.000000
    0    0   -5   29    2    0.000005    0.000000
    0    0   -5   30    2   -0.000001    0.000000
    0    0   -5   31    2   -0.000043   -0.000000
    0    0   -5   32    2    0.000008    0.000000
    0    0   -5   33    2   -0.000007    0.000000
    0    0   -5   34    2    0.000004    0.000000
    0    0   -5   35    2   -0.000010   -0.000000
    0    0   -5   36    2    0.000003    0.000000
    0    0   -5   37    2   -0.000049   -0.000000
    0    0   -5   38    2    0.000055    0.000000
    0    0   -5   39    2    0.000489   -0.000000
    0    0   -5   40    2    0.000009    0.000000
    0    0   -5   41    2    0.000510    0.000000
    0    0   -5   42    2    0.000008   -0.000000
    0    0   -5   43    2   -0.000045   -0.000000
    0    0   -5   44    2    0.000008   -0.000000
    0    0   -5   45    2   -0.000007   -0.000000
    0    0   -5   46    2    0.000003   -0.000000
    0    0   -5   47    2   -0.000010   -0.000000
    0    0   -5   48    2    0.000003    0.000000
    0    0   -5   49    2   -0.000049    0.000000
    0    0   -5   50    2    0.000053   -0.000000
    0    0   -5    1    3    0.000005    0.000000
    0    0   -5    2    3    0.000038    0.000000
    0    0   -5    3    3    0.000042   -0.000000
    0    0   -5    4    3    0.000047    0.000000
    0    0   -5    5    3   -0.000012   -0.000000
    0    0   -5    6    3    0.000024   -0.000000
    0    0   -5    7    3    0.000034   -0.000000
    0    0   -5    8    3    0.000032   -0.000000
    0    0   -5    9    3    0.000006   -0.000000
    0    0   -5   10    3   -0.000037   -0.000000
    0    0   -5   11    3    0.000002    0.000000
    0    0   -5   12    3   -0.000022    0.000000
    0    0   -5   13    3   -0.000016   -0.000000
    0    0   -5   14    3    0.000001    0.000000
    0    0   -5   15    3   -0.000006   -0.000000
    0    0   -5   16    3   -0.000011    0.000000
    0    0   -5   17    3   -0.000012   -0.000000
    0    0   -5   18    3    0.000011   -0.000000
    0    0   -5   19    3    0.000023   -0.000000
    0    0   -5   20    3    0.000011    0.000000
    0    0   -5   21    3    0.000003    0.000000
    0    0   -5   22    3   -0.000022    0.000000
    0    0   -5   23    3   -0.000016   -0.000000
    0    0   -5   24    3    0.000002   -0.000000
    0    0   -5   25    3   -0.000006   -0.000000
    0    0   -5   26    3   -0.000011    0.000000
    0    0   -5   27    3   -0.000012    0.000000
    0    0   -5   28    3    0.000011    0.000000
    0    0   -5   29    3    0.000023   -0.000000
    0    0   -5   30    3    0.000012    0.000000
    0    0   -5   31    3   -0.000044   -0.000000
    0    0   -5   32    3    0.000010    0.000000
    0    0   -5   33    3   -0.000032    0.000000
    0    0   -5   34    3   -0.000007   -0.000000
    0    0   -5   35    3   -0.000031   -0.000000
    0    0   -5   36    3   -0.000010    0.000000
    0    0   -5   37    3   -0.000006    0.000000
    0    0   -5   38    3    0.000012   -0.000000
    0    0   -5   39    3   -0.000047    0.000000
    0    0   -5   40    3   -0.000015   -0.000000
    0    0   -5   41    3   -0.000048    0.000000
    0    0   -5   42    3   -0.000014    0.000000
    0    0   -5   43    3   -0.000044   -0.000000
    0    0   -5   44    3    0.000010   -0.000000
    0    0   -5   45    3   -0.000031   -0.000000
    0    0   -5   46    3   -0.000007   -0.000000
    0    0   -5   47    3   -0.000031    0.000000
    0    0   -5   48    3   -0.000002    0.000000
    0    0   -5   49    3   -0.000007    0.000000
    0    0   -5   50    3    0.000012   -0.000000
    0    0   -5    1    4   -0.000009    0.000000
    0    0   -5    2    4   -0.000045   -0.000000
    0    0   -5    3    4    0.000047   -0.000000
    0    0   -5    4    4    0.000033   -0.000000
    0    0   -5    5    4    0.000045   -0.000000
    0    0   -5    6    4   -0.000023   -0.000000
    0    0   -5    7    4    0.000029   -0.000000
    0    0   -5    8    4    0.000004   -0.000000
    0    0   -5    9    4    0.000005    0.000000
    0    0   -5   10    4    0.000024    0.000000
    0    0   -5   11    4    0.000014    0.000000
    0    0   -5   12    4    0.000000    0.000000
    0    0   -5   13    4   -0.000028    0.000000
    0    0   -5   14    4   -0.000015    0.000000
    0    0   -5   15    4   -0.000011   -0.000000
    0    0   -5   16    4    0.000002    0.000000
    0    0   -5   17    4    0.000003    0.000000
    0    0   -5   18    4   -0.000010   -0.000000
    0    0   -5   19    4   -0.000013    0.000000
    0    0   -5   20    4   -0.000010    0.000000
    0    0   -5   21    4    0.000015    0.000000
    0    0   -5   22    4    0.000001   -0.000000
    0    0   -5   23    4   -0.000027   -0.000000
    0    0   -5   24    4   -0.000015    0.000000
    0    0   -5   25    4   -0.000011    0.000000
    0    0   -5   26    4    0.000002    0.000000
    0    0   -5   27    4    0.000003   -0.000000
    0    0   -5   28    4   -0.000010   -0.000000
    0    0   -5   29    4   -0.000013   -0.000000
    0    0   -5   30    4   -0.000009    0.000000
    0    0   -5   31    4   -0.000019   -0.000000
    0    0   -5   32    4    0.000010    0.000000
    0    0   -5   33    4   -0.000042   -0.000000
    0    0   -5   34    4   -0.000128    0.000000
    0    0   -5   35    4   -0.000015    0.000000
    0    0   -5   36    4   -0.000003    0.000000
    0    0   -5   37    4   -0.000023    0.000000
    0    0   -5   38    4    0.000007    0.000000
    0    0   -5   39    4   -0.000020   -0.000000
    0    0   -5   40    4   -0.000004    0.000000
    0    0   -5   41    4   -0.000020    0.000000
    0    0   -5   42    4   -0.000004   -0.000000
    0    0   -5   43    4   -0.000018    0.000000
    0    0   -5   44    4    0.000009   -0.000000
    0    0   -5   45    4   -0.000043    0.000000
    0    0   -5   46    4   -0.000123   -0.000000
    0    0   -5   47    4   -0.000015    0.000000
    0    0   -5   48    4    0.000003    0.000000
    0    0   -5   49    4   -0.000024    0.000000
    0    0   -5   50    4    0.000006   -0.000000
    0    0   -5    1    5    0.000038    0.000000
    0    0   -5    2    5   -0.000033   -0.000000
    0    0   -5    3    5   -0.000012    0.000000
    0    0   -5    4    5    0.000045    0.000000
    0    0   -5    5    5    0.000040   -0.000000
    0    0   -5    6    5    0.000024   -0.000000
    0    0   -5    7    5   -0.000038   -0.000000
    0    0   -5    8    5    0.000005    0.000000
    0    0   -5    9    5    0.000032   -0.000000
    0    0   -5   10    5    0.000036   -0.000000
    0    0   -5   11    5   -0.000018   -0.000000
    0    0   -5   12    5   -0.000005    0.000000
    0    0   -5   13    5   -0.000006    0.000000
    0    0   -5   14    5    0.000022    0.000000
    0    0   -5   15    5    0.000011    0.000000
    0    0   -5   16    5   -0.000012   -0.000000
    0    0   -5   17    5   -0.000013    0.000000
    0    0   -5   18    5   -0.000006    0.000000
    0    0   -5   19    5    0.000003   -0.000000
    0    0   -5   20    5   -0.000023    0.000000
    0    0   -5   21    5   -0.000018    0.000000
    0    0   -5   22    5   -0.000004   -0.000000
    0    0   -5   23    5   -0.000005   -0.000000
    0    0   -5   24    5    0.000022   -0.000000
    0    0   -5   25    5    0.000011   -0.000000
    0    0   -5   26    5   -0.000012   -0.000000
    0    0   -5   27    5   -0.000013    0.000000
    0    0   -5   28    5   -0.000006    0.000000
    0    0   -5   29    5    0.000003    0.000000
    0    0   -5   30    5   -0.000023   -0.000000
    0    0   -5   31    5   -0.000035   -0.000000
    0    0   -5   32    5    0.000017   -0.000000
    0    0   -5   33    5   -0.000026   -0.000000
    0    0   -5   34    5   -0.000196    0.000000
    0    0   -5   35    5   -0.000031    0.000000
    0    0   -5   36    5    0.000008    0.000000
    0    0   -5   37    5   -0.000030   -0.000000
    0    0   -5   38    5    0.000009    0.000000
    0    0   -5   39    5   -0.000040   -0.000000
    0    0   -5   40    5   -0.000010   -0.000000
    0    0   -5   41    5   -0.000040   -0.000000
    0    0   -5   42    5   -0.000009    0.000000
    0    0   -5   43    5   -0.000035   -0.000000
    0    0   -5   44    5    0.000017    0.000000
    0    0   -5   45    5   -0.000027    0.000000
    0    0   -5   46    5   -0.000189   -0.000000
    0    0   -5   47    5   -0.000031   -0.000000
    0    0   -5   48    5    0.000008    0.000000
    0    0   -5   49    5   -0.000030   -0.000000
    0    0   -5   50    5    0.000009   -0.000000
    0    0   -5    1    6    0.000006   -0.000000
    0    0   -5    2    6    0.000004    0.000000
    0    0   -5    3    6    0.000024    0.000000
    0    0   -5    4    6   -0.000023    0.000000
    0    0   -5    5    6    0.000024    0.000000
    0    0   -5    6    6    0.000033   -0.000000
    0    0   -5    7    6    0.000049    0.000000
    0    0   -5    8    6   -0.000005    0.000000
    0    0   -5    9    6    0.000032   -0.000000
    0    0   -5   10    6    0.000045    0.000000
    0    0   -5   11    6    0.000004    0.000000
    0    0   -5   12    6    0.000000    0.000000
    0    0   -5   13    6   -0.000015    0.000000
    0    0   -5   14    6   -0.000019    0.000000
    0    0   -5   15    6   -0.000008    0.000000
    0    0   -5   16    6    0.000017    0.000000
    0    0   -5   17    6    0.000027    0.000000
    0    0   -5   18    6    0.000014    0.000000
    0    0   -5   19    6   -0.000014   -0.000000
    0    0   -5   20    6   -0.000008    0.000000
    0    0   -5   21    6    0.000006    0.000000
    0    0   -5   22    6    0.000005   -0.000000
    0    0   -5   23    6   -0.000007    0.000000
    0    0   -5   24    6   -0.000014   -0.000000
    0    0   -5   25    6   -0.000006    0.000000
    0    0   -5   26    6   -0.000006    0.000000
    0    0   -5   27    6   -0.000010   -0.000000
    0    0   -5   28    6   -0.000008    0.000000
    0    0   -5   29    6   -0.000018   -0.000000
    0    0   -5   30    6   -0.000003    0.000000
    0    0   -5   31    6   -0.000045   -0.000000
    0    0   -5   32    6   -0.000017    0.000000
    0    0   -5   33    6   -0.000010   -0.000000
    0    0   -5   34    6   -0.000013   -0.000000
    0    0   -5   35    6   -0.000008    0.000000
    0    0   -5   36    6   -0.000021   -0.000000
    0    0   -5   37    6   -0.000001    0.000000
    0    0   -5   38    6   -0.000005    0.000000
    0    0   -5   39    6   -0.000061    0.000000
    0    0   -5   40    6    0.000005   -0.000000
    0    0   -5   41    6    0.000149    0.000000
    0    0   -5   42    6   -0.000042   -0.000000
    0    0   -5   43    6    0.000025    0.000000
    0    0   -5   44    6    0.000013    0.000000
    0    0   -5   45    6   -0.000013    0.000000
    0    0   -5   46    6    0.000014    0.000000
    0    0   -5   47    6    0.000008    0.000000
    0    0   -5   48    6    0.000010   -0.000000
    0    0   -5   49    6    0.000005   -0.000000
    0    0   -5   50    6    0.000016    0.000000
    0    0   -5    1    7    0.000006    0.000000
    0    0   -5    2    7    0.000032    0.000000
    0    0   -5    3    7    0.000034    0.000000
    0    0   -5    4    7    0.000029    0.000000
    0    0   -5    5    7   -0.000038    0.000000
    0    0   -5    6    7    0.000049   -0.000000
    0    0   -5    7    7    0.000039   -0.000000
    0    0   -5    8    7    0.000035    0.000000
    0    0   -5    9    7    0.000050   -0.000000
    0    0   -5   10    7   -0.000011    0.000000
    0    0   -5   11    7   -0.000009   -0.000000
    0    0   -5   12    7   -0.000006   -0.000000
    0    0   -5   13    7    0.000001   -0.000000
    0    0   -5   14    7   -0.000000   -0.000000
    0    0   -5   15    7   -0.000031    0.000000
    0    0   -5   16    7   -0.000016   -0.000000
    0    0   -5   17    7    0.000003   -0.000000
    0    0   -5   18    7    0.000035    0.000000
    0    0   -5   19    7    0.000027    0.000000
    0    0   -5   20    7    0.000017    0.000000
    0    0   -5   21    7   -0.000004    0.000000
    0    0   -5   22    7   -0.000017    0.000000
    0    0   -5   23    7    0.000004    0.000000
    0    0   -5   24    7   -0.000020    0.000000
    0    0   -5   25    7   -0.000002   -0.000000
    0    0   -5   26    7   -0.000007    0.000000
    0    0   -5   27    7    0.000011    0.000000
    0    0   -5   28    7    0.000012   -0.000000
    0    0   -5   29    7   -0.000010    0.000000
    0    0   -5   30    7    0.000009    0.000000
    0    0   -5   31    7   -0.000018    0.000000
    0    0   -5   32    7   -0.000043    0.000000
    0    0   -5   33    7    0.000002   -0.000000
    0    0   -5   34    7   -0.000025   -0.000000
    0    0   -5   35    7    0.000000   -0.000000
    0    0   -5   36    7   -0.000040   -0.000000
    0    0   -5   37    7   -0.000038   -0.000000
    0    0   -5   38    7    0.000011    0.000000
    0    0   -5   39    7   -0.000085    0.000000
    0    0   -5   40    7    0.000032   -0.000000
    0    0   -5   41    7    0.000222    0.000000
    0    0   -5   42    7   -0.000025    0.000000
    0    0   -5   43    7   -0.000012    0.000000
    0    0   -5   44    7    0.000013   -0.000000
    0    0   -5   45    7    0.000012   -0.000000
    0    0   -5   46    7   -0.000002   -0.000000
    0    0   -5   47    7    0.000028    0.000000
    0    0   -5   48    7    0.000002    0.000000
    0    0   -5   49    7    0.000010   -0.000000
    0    0   -5   50    7    0.000044    0.000000
    0    0   -5    1    8   -0.000021    0.000000
    0    0   -5    2    8   -0.000010    0.000000
    0    0   -5    3    8    0.000032    0.000000
    0    0   -5    4    8    0.000004    0.000000
    0    0   -5    5    8    0.000005   -0.000000
    0    0   -5    6    8   -0.000005   -0.000000
    0    0   -5    7    8    0.000035   -0.000000
    0    0   -5    8    8    0.000043   -0.000000
    0    0   -5    9    8    0.000031    0.000000
    0    0   -5   10    8    0.000013   -0.000000
    0    0   -5   11    8    0.000007   -0.000000
    0    0   -5   12    8    0.000006    0.000000
    0    0   -5   13    8    0.000014    0.000000
    0    0   -5   14    8   -0.000014   -0.000000
    0    0   -5   15    8   -0.000006    0.000000
    0    0   -5   16    8    0.000001    0.000000
    0    0   -5   17    8   -0.000008   -0.000000
    0    0   -5   18    8   -0.000007    0.000000
    0    0   -5   19    8    0.000005   -0.000000
    0    0   -5   20    8    0.000009    0.000000
    0    0   -5   21    8   -0.000007    0.000000
    0    0   -5   22    8    0.000006   -0.000000
    0    0   -5   23    8   -0.000032   -0.000000
    0    0   -5   24    8   -0.000010    0.000000
    0    0   -5   25    8    0.000009   -0.000000
    0    0   -5   26    8    0.000005    0.000000
    0    0   -5   27    8   -0.000010   -0.000000
    0    0   -5   28    8   -0.000018   -0.000000
    0    0   -5   29    8    0.000017   -0.000000
    0    0   -5   30    8   -0.000001    0.000000
    0    0   -5   31    8   -0.000008    0.000000
    0    0   -5   32    8   -0.000011    0.000000
    0    0   -5   33    8    0.000038    0.000000
    0    0   -5   34    8   -0.000003   -0.000000
    0    0   -5   35    8   -0.000058   -0.000000
    0    0   -5   36    8   -0.000064    0.000000
    0    0   -5   37    8   -0.000065   -0.000000
    0    0   -5   38    8   -0.000030   -0.000000
    0    0   -5   39    8   -0.000029   -0.000000
    0    0   -5   40    8    0.000009   -0.000000
    0    0   -5   41    8    0.000009   -0.000000
    0    0   -5   42    8   -0.000007   -0.000000
    0    0   -5   43    8   -0.000001   -0.000000
    0    0   -5   44    8   -0.000005   -0.000000
    0    0   -5   45    8    0.000024   -0.000000
    0    0   -5   46    8    0.000049    0.000000
    0    0   -5   47    8    0.000016   -0.000000
    0    0   -5   48    8    0.000061   -0.000000
    0    0   -5   49    8    0.000012    0.000000
    0    0   -5   50    8    0.000046    0.000000
    0    0   -5    1    9   -0.000011   -0.000000
    0    0   -5    2    9   -0.000022   -0.000000
    0    0   -5    3    9    0.000006    0.000000
    0    0   -5    4    9    0.000005   -0.000000
    0    0   -5    5    9    0.000032    0.000000
    0    0   -5    6    9    0.000032    0.000000
    0    0   -5    7    9    0.000050    0.000000
    0    0   -5    8    9    0.000031   -0.000000
    0    0   -5    9    9    0.000040   -0.000000
    0    0   -5   10    9    0.000040   -0.000000
    0    0   -5   11    9   -0.000012   -0.000000
    0    0   -5   12    9    0.000025   -0.000000
    0    0   -5   13    9    0.000013    0.000000
    0    0   -5   14    9    0.000004   -0.000000
    0    0   -5   15    9   -0.000012   -0.000000
    0    0   -5   16    9   -0.000009    0.000000
    0    0   -5   17    9    0.000000   -0.000000
    0    0   -5   18    9   -0.000009   -0.000000
    0    0   -5   19    9   -0.000025    0.000000
    0    0   -5   20    9    0.000005   -0.000000
    0    0   -5   21    9    0.000007    0.000000
    0    0   -5   22    9   -0.000010   -0.000000
    0    0   -5   23    9   -0.000008    0.000000
    0    0   -5   24    9    0.000016    0.000000
    0    0   -5   25    9   -0.000019    0.000000
    0    0   -5   26    9   -0.000009   -0.000000
    0    0   -5   27    9    0.000006    0.000000
    0    0   -5   28    9    0.000010   -0.000000
    0    0   -5   29    9   -0.000011   -0.000000
    0    0   -5   30    9   -0.000020    0.000000
    0    0   -5   31    9   -0.000021    0.000000
    0    0   -5   32    9   -0.000017   -0.000000
    0    0   -5   33    9   -0.000055   -0.000000
    0    0   -5   34    9   -0.000526    0.000000
    0    0   -5   35    9   -0.000049   -0.000000
    0    0   -5   36    9   -0.000016   -0.000000
    0    0   -5   37    9    0.000012    0.000000
    0    0   -5   38    9   -0.000011   -0.000000
    0    0   -5   39    9   -0.000008   -0.000000
    0    0   -5   40    9    0.000007   -0.000000
    0    0   -5   41    9   -0.000002    0.000000
    0    0   -5   42    9   -0.000003   -0.000000
    0    0   -5   43    9    0.000008    0.000000
    0    0   -5   44    9    0.000039    0.000000
    0    0   -5   45    9   -0.000023    0.000000
    0    0   -5   46    9    0.000108    0.000000
    0    0   -5   47    9    0.000034   -0.000000
    0    0   -5   48    9    0.000043    0.000000
    0    0   -5   49    9    0.000006   -0.000000
    0    0   -5   50    9   -0.000005    0.000000
    0    0   -5    1   10    0.000032    0.000000
    0    0   -5    2   10    0.000007    0.000000
    0    0   -5    3   10   -0.000037    0.000000
    0    0   -5    4   10    0.000024   -0.000000
    0    0   -5    5   10    0.000036    0.000000
    0    0   -5    6   10    0.000045   -0.000000
    0    0   -5    7   10   -0.000011   -0.000000
    0    0   -5    8   10    0.000013    0.000000
    0    0   -5    9   10    0.000040    0.000000
    0    0   -5   10   10    0.000040   -0.000000
    0    0   -5   11   10   -0.000012    0.000000
    0    0   -5   12   10   -0.000010    0.000000
    0    0   -5   13   10    0.000013    0.000000
    0    0   -5   14   10    0.000024   -0.000000
    0    0   -5   15   10    0.000017    0.000000
    0    0   -5   16   10    0.000003    0.000000
    0    0   -5   17   10   -0.000016    0.000000
    0    0   -5   18   10   -0.000022    0.000000
    0    0   -5   19   10    0.000003    0.000000
    0    0   -5   20   10   -0.000006   -0.000000
    0    0   -5   21   10   -0.000012   -0.000000
    0    0   -5   22   10   -0.000006   -0.000000
    0    0   -5   23   10    0.000013    0.000000
    0    0   -5   24   10   -0.000006   -0.000000
    0    0   -5   25   10    0.000024   -0.000000
    0    0   -5   26   10    0.000005    0.000000
    0    0   -5   27   10   -0.000011    0.000000
    0    0   -5   28   10   -0.000003    0.000000
    0    0   -5   29   10   -0.000014   -0.000000
    0    0   -5   30   10   -0.000000   -0.000000
    0    0   -5   31   10   -0.000074   -0.000000
    0    0   -5   32   10   -0.000005    0.000000
    0    0   -5   33   10   -0.000046    0.000000
    0    0   -5   34   10   -0.000022    0.000000
    0    0   -5   35   10   -0.000013    0.000000
    0    0   -5   36   10   -0.000038   -0.000000
    0    0   -5   37   10    0.000001    0.000000
    0    0   -5   38   10   -0.000028   -0.000000
    0    0   -5   39   10   -0.000004    0.000000
    0    0   -5   40   10    0.000033   -0.000000
    0    0   -5   41   10    0.000015   -0.000000
    0    0   -5   42   10   -0.000042   -0.000000
    0    0   -5   43   10    0.000034    0.000000
    0    0   -5   44   10    0.000038   -0.000000
    0    0   -5   45   10    0.000016   -0.000000
    0    0   -5   46   10    0.000006   -0.000000
    0    0   -5   47   10    0.000009   -0.000000
    0    0   -5   48   10    0.000009    0.000000
    0    0   -5   49   10    0.000009    0.000000
    0    0   -5   50   10    0.000005   -0.000000
    0    0   -5    1   11    0.000001   -0.000000
    0    0   -5    2   11   -0.000008   -0.000000
    0    0   -5    3   11    0.000002   -0.000000
    0    0   -5    4   11    0.000014   -0.000000
    0    0   -5    5   11   -0.000018    0.000000
    0    0   -5    6   11    0.000004   -0.000000
    0    0   -5    7   11   -0.000009    0.000000
    0    0   -5    8   11    0.000007    0.000000
    0    0   -5    9   11   -0.000012    0.000000
    0    0   -5   10   11   -0.000012   -0.000000
    0    0   -5   11   11    0.000017   -0.000000
    0    0   -5   12   11    0.000007   -0.000000
    0    0   -5   13   11   -0.000001    0.000000
    0    0   -5   14   11    0.000029    0.000000
    0    0   -5   15   11    0.000010    0.000000
    0    0   -5   16   11   -0.000046   -0.000000
    0    0   -5   17   11    0.000017    0.000000
    0    0   -5   18   11   -0.000023   -0.000000
    0    0   -5   19   11    0.000016   -0.000000
    0    0   -5   20   11   -0.000013    0.000000
    0    0   -5   21   11    0.000030   -0.000000
    0    0   -5   22   11    0.000003   -0.000000
    0    0   -5   23   11    0.000005   -0.000000
    0    0   -5   24   11    0.000011    0.000000
    0    0   -5   25   11   -0.000014   -0.000000
    0    0   -5   26   11    0.000009   -0.000000
    0    0   -5   27   11   -0.000010   -0.000000
    0    0   -5   28   11    0.000017   -0.000000
    0    0   -5   29   11   -0.000008    0.000000
    0    0   -5   30   11   -0.000014    0.000000
    0    0   -5   31   11   -0.000023   -0.000000
    0    0   -5   32   11   -0.000035    0.000000
    0    0   -5   33   11    0.000015   -0.000000
    0    0   -5   34   11    0.000033   -0.000000
    0    0   -5   35   11   -0.000046   -0.000000
    0    0   -5   36   11    0.000005   -0.000000
    0    0   -5   37   11    0.000051   -0.000000
    0    0   -5   38   11   -0.000022   -0.000000
    0    0   -5   39   11    0.000006   -0.000000
    0    0   -5   40   11   -0.000015    0.000000
    0    0   -5   41   11   -0.000174   -0.000000
    0    0   -5   42   11    0.000024   -0.000000
    0    0   -5   43   11    0.000107    0.000000
    0    0   -5   44   11    0.000009    0.000000
    0    0   -5   45   11   -0.000003   -0.000000
    0    0   -5   46   11    0.000031    0.000000
    0    0   -5   47   11   -0.000015    0.000000
    0    0   -5   48   11   -0.000036    0.000000
    0    0   -5   49   11    0.000018    0.000000
    0    0   -5   50   11    0.000002    0.000000
    0    0   -5    1   12   -0.000006   -0.000000
    0    0   -5    2   12   -0.000002    0.000000
    0    0   -5    3   12   -0.000022   -0.000000
    0    0   -5    4   12    0.000000   -0.000000
    0    0   -5    5   12   -0.000005   -0.000000
    0    0   -5    6   12    0.000000   -0.000000
    0    0   -5    7   12   -0.000006    0.000000
    0    0   -5    8   12    0.000006   -0.000000
    0    0   -5    9   12    0.000025    0.000000
    0    0   -5   10   12   -0.000010   -0.000000
    0    0   -5   11   12    0.000007    0.000000
    0    0   -5   12   12    0.000023   -0.000000
    0    0   -5   13   12   -0.000024   -0.000000
    0    0   -5   14   12    0.000013   -0.000000
    0    0   -5   15   12   -0.000002   -0.000000
    0    0   -5   16   12    0.000035   -0.000000
    0    0   -5   17   12   -0.000047   -0.000000
    0    0   -5   18   12    0.000037    0.000000
    0    0   -5   19   12    0.000031    0.000000
    0    0   -5   20   12   -0.000005   -0.000000
    0    0   -5   21   12    0.000002   -0.000000
    0    0   -5   22   12    0.000028    0.000000
    0    0   -5   23   12   -0.000015   -0.000000
    0    0   -5   24   12   -0.000004    0.000000
    0    0   -5   25   12    0.000016   -0.000000
    0    0   -5   26   12   -0.000008    0.000000
    0    0   -5   27   12    0.000006    0.000000
    0    0   -5   28   12   -0.000017   -0.000000
    0    0   -5   29   12    0.000006    0.000000
    0    0   -5   30   12    0.000009    0.000000
    0    0   -5   31   12    0.000004    0.000000
    0    0   -5   32   12    0.000003   -0.000000
    0    0   -5   33   12    0.000052   -0.000000
    0    0   -5   34   12    0.000023   -0.000000
    0    0   -5   35   12   -0.000041    0.000000
    0    0   -5   36   12    0.000026   -0.000000
    0    0   -5   37   12    0.000010   -0.000000
    0    0   -5   38   12    0.000007    0.000000
    0    0   -5   39   12   -0.000050    0.000000
    0    0   -5   40   12   -0.000002    0.000000
    0    0   -5   41   12    0.000603    0.000000
    0    0   -5   42   12    0.000012   -0.000000
    0    0   -5   43   12   -0.000059   -0.000000
    0    0   -5   44   12    0.000007    0.000000
    0    0   -5   45   12    0.000030    0.000000
    0    0   -5   46   12   -0.000035    0.000000
    0    0   -5   47   12   -0.000028    0.000000
    0    0   -5   48   12    0.000019    0.000000
    0    0   -5   49   12   -0.000021    0.000000
    0    0   -5   50   12    0.000009    0.000000
    0    0   -5    1   13   -0.000004   -0.000000
    0    0   -5    2   13   -0.000005    0.000000
    0    0   -5    3   13   -0.000016    0.000000
    0    0   -5    4   13   -0.000028   -0.000000
    0    0   -5    5   13   -0.000006   -0.000000
    0    0   -5    6   13   -0.000015   -0.000000
    0    0   -5    7   13    0.000001    0.000000
    0    0   -5    8   13    0.000014   -0.000000
    0    0   -5    9   13    0.000013   -0.000000
    0    0   -5   10   13    0.000013   -0.000000
    0    0   -5   11   13   -0.000001   -0.000000
    0    0   -5   12   13   -0.000024    0.000000
    0    0   -5   13   13    0.000008   -0.000000
    0    0   -5   14   13    0.000014   -0.000000
    0    0   -5   15   13   -0.000001    0.000000
    0    0   -5   16   13    0.000024    0.000000
    0    0   -5   17   13   -0.000017   -0.000000
    0    0   -5   18   13    0.000009   -0.000000
    0    0   -5   19   13   -0.000016    0.000000
    0    0   -5   20   13    0.000017   -0.000000
    0    0   -5   21   13    0.000005    0.000000
    0    0   -5   22   13   -0.000015   -0.000000
    0    0   -5   23   13    0.000032    0.000000
    0    0   -5   24   13    0.000003    0.000000
    0    0   -5   25   13    0.000007   -0.000000
    0    0   -5   26   13    0.000033    0.000000
    0    0   -5   27   13   -0.000012   -0.000000
    0    0   -5   28   13    0.000002   -0.000000
    0    0   -5   29   13   -0.000004    0.000000
    0    0   -5   30   13    0.000008    0.000000
    0    0   -5   31   13   -0.000041   -0.000000
    0    0   -5   32   13   -0.000019    0.000000
    0    0   -5   33   13   -0.000045    0.000000
    0    0   -5   34   13    0.000030   -0.000000
    0    0   -5   35   13    0.000035   -0.000000
    0    0   -5   36   13   -0.000021   -0.000000
    0    0   -5   37   13   -0.000005   -0.000000
    0    0   -5   38   13    0.000067    0.000000
    0    0   -5   39   13   -0.000006   -0.000000
    0    0   -5   40   13    0.000079    0.000000
    0    0   -5   41   13    0.000699    0.000000
    0    0   -5   42   13   -0.000018    0.000000
    0    0   -5   43   13    0.000007    0.000000
    0    0   -5   44   13    0.000044    0.000000
    0    0   -5   45   13   -0.000043   -0.000000
    0    0   -5   46   13   -0.000037   -0.000000
    0    0   -5   47   13   -0.000004   -0.000000
    0    0   -5   48   13   -0.000010    0.000000
    0    0   -5   49   13   -0.000042   -0.000000
    0    0   -5   50   13   -0.000011   -0.000000
    0    0   -5    1   14    0.000004   -0.000000
    0    0   -5    2   14   -0.000030    0.000000
    0    0   -5    3   14    0.000001   -0.000000
    0    0   -5    4   14   -0.000015   -0.000000
    0    0   -5    5   14    0.000022   -0.000000
    0    0   -5    6   14   -0.000019   -0.000000
    0    0   -5    7   14   -0.000000    0.000000
    0    0   -5    8   14   -0.000014    0.000000
    0    0   -5    9   14    0.000004    0.000000
    0    0   -5   10   14    0.000024    0.000000
    0    0   -5   11   14    0.000029   -0.000000
    0    0   -5   12   14    0.000013    0.000000
    0    0   -5   13   14    0.000014    0.000000
    0    0   -5   14   14    0.000009   -0.000000
    0    0   -5   15   14    0.000017   -0.000000
    0    0   -5   16   14    0.000010   -0.000000
    0    0   -5   17   14    0.000026   -0.000000
    0    0   -5   18   14   -0.000030   -0.000000
    0    0   -5   19   14   -0.000015    0.000000
    0    0   -5   20   14   -0.000024   -0.000000
    0    0   -5   21   14    0.000011    0.000000
    0    0   -5   22   14   -0.000004   -0.000000
    0    0   -5   23   14    0.000003    0.000000
    0    0   -5   24   14    0.000029    0.000000
    0    0   -5   25   14   -0.000019   -0.000000
    0    0   -5   26   14   -0.000022    0.000000
    0    0   -5   27   14    0.000010    0.000000
    0    0   -5   28   14   -0.000024   -0.000000
    0    0   -5   29   14    0.000002   -0.000000
    0    0   -5   30   14   -0.000016   -0.000000
    0    0   -5   31   14    0.000035    0.000000
    0    0   -5   32   14   -0.000034   -0.000000
    0    0   -5   33   14   -0.000057    0.000000
    0    0   -5   34   14    0.000012    0.000000
    0    0   -5   35   14   -0.000000   -0.000000
    0    0   -5   36   14    0.000015   -0.000000
    0    0   -5   37   14    0.000005   -0.000000
    0    0   -5   38   14   -0.000005   -0.000000
    0    0   -5   39   14    0.000020   -0.000000
    0    0   -5   40   14    0.000016   -0.000000
    0    0   -5   41   14   -0.000051   -0.000000
    0    0   -5   42   14    0.000001    0.000000
    0    0   -5   43   14    0.000029   -0.000000
    0    0   -5   44   14   -0.000031   -0.000000
    0    0   -5   45   14    0.000019    0.000000
    0    0   -5   46   14    0.000016   -0.000000
    0    0   -5   47   14   -0.000017   -0.000000
    0    0   -5   48   14   -0.000021   -0.000000
    0    0   -5   49   14    0.000003   -0.000000
    0    0   -5   50   14    0.000005   -0.000000
    0    0   -5    1   15    0.000009   -0.000000
    0    0   -5    2   15    0.000006    0.000000
    0    0   -5    3   15   -0.000006    0.000000
    0    0   -5    4   15   -0.000011    0.000000
    0    0   -5    5   15    0.000011   -0.000000
    0    0   -5    6   15   -0.000008   -0.000000
    0    0   -5    7   15   -0.000031   -0.000000
    0    0   -5    8   15   -0.000006   -0.000000
    0    0   -5    9   15   -0.000012    0.000000
    0    0   -5   10   15    0.000017   -0.000000
    0    0   -5   11   15    0.000010   -0.000000
    0    0   -5   12   15   -0.000002    0.000000
    0    0   -5   13   15   -0.000001   -0.000000
    0    0   -5   14   15    0.000017    0.000000
    0    0   -5   15   15    0.000004   -0.000000
    0    0   -5   16   15   -0.000010    0.000000
    0    0   -5   17   15   -0.000011   -0.000000
    0    0   -5   18   15    0.000010    0.000000
    0    0   -5   19   15   -0.000022    0.000000
    0    0   -5   20   15    0.000003   -0.000000
    0    0   -5   21   15   -0.000014   -0.000000
    0    0   -5   22   15    0.000016   -0.000000
    0    0   -5   23   15    0.000007    0.000000
    0    0   -5   24   15   -0.000019    0.000000
    0    0   -5   25   15    0.000019    0.000000
    0    0   -5   26   15   -0.000009    0.000000
    0    0   -5   27   15   -0.000005    0.000000
    0    0   -5   28   15    0.000023    0.000000
    0    0   -5   29   15   -0.000026   -0.000000
    0    0   -5   30   15    0.000002    0.000000
    0    0   -5   31   15   -0.000045   -0.000000
    0    0   -5   32   15   -0.000010   -0.000000
    0    0   -5   33   15    0.000043    0.000000
    0    0   -5   34   15    0.000004   -0.000000
    0    0   -5   35   15    0.000003   -0.000000
    0    0   -5   36   15   -0.000066    0.000000
    0    0   -5   37   15   -0.000002   -0.000000
    0    0   -5   38   15   -0.000024   -0.000000
    0    0   -5   39   15    0.000003   -0.000000
    0    0   -5   40   15   -0.000026    0.000000
    0    0   -5   41   15   -0.000030    0.000000
    0    0   -5   42   15   -0.000024    0.000000
    0    0   -5   43   15    0.000005   -0.000000
    0    0   -5   44   15   -0.000021    0.000000
    0    0   -5   45   15   -0.000008    0.000000
    0    0   -5   46   15   -0.000002   -0.000000
    0    0   -5   47   15   -0.000022   -0.000000
    0    0   -5   48   15    0.000009    0.000000
    0    0   -5   49   15    0.000020    0.000000
    0    0   -5   50   15    0.000012    0.000000
    0    0   -5    1   16    0.000002    0.000000
    0    0   -5    2   16    0.000023   -0.000000
    0    0   -5    3   16   -0.000011   -0.000000
    0    0   -5    4   16    0.000002   -0.000000
    0    0   -5    5   16   -0.000012    0.000000
    0    0   -5    6   16    0.000017   -0.000000
    0    0   -5    7   16   -0.000016    0.000000
    0    0   -5    8   16    0.000001   -0.000000
    0    0   -5    9   16   -0.000009   -0.000000
    0    0   -5   10   16    0.000003   -0.000000
    0    0   -5   11   16   -0.000046    0.000000
    0    0   -5   12   16    0.000035    0.000000
    0    0   -5   13   16    0.000024   -0.000000
    0    0   -5   14   16    0.000010    0.000000
    0    0   -5   15   16   -0.000010   -0.000000
    0    0   -5   16   16    0.000017   -0.000000
    0    0   -5   17   16    0.000001    0.000000
    0    0   -5   18   16   -0.000009    0.000000
    0    0   -5   19   16    0.000026    0.000000
    0    0   -5   20   16    0.000004    0.000000
    0    0   -5   21   16    0.000009   -0.000000
    0    0   -5   22   16   -0.000009   -0.000000
    0    0   -5   23   16    0.000032    0.000000
    0    0   -5   24   16   -0.000022   -0.000000
    0    0   -5   25   16   -0.000009    0.000000
    0    0   -5   26   16    0.000026   -0.000000
    0    0   -5   27   16   -0.000012    0.000000
    0    0   -5   28   16   -0.000002    0.000000
    0    0   -5   29   16    0.000012   -0.000000
    0    0   -5   30   16   -0.000011    0.000000
    0    0   -5   31   16   -0.000030   -0.000000
    0    0   -5   32   16    0.000010   -0.000000
    0    0   -5   33   16    0.000011   -0.000000
    0    0   -5   34   16    0.000097   -0.000000
    0    0   -5   35   16   -0.000001   -0.000000
    0    0   -5   36   16   -0.000018    0.000000
    0    0   -5   37   16    0.000004    0.000000
    0    0   -5   38   16   -0.000007   -0.000000
    0    0   -5   39   16    0.000024   -0.000000
    0    0   -5   40   16    0.000016    0.000000
    0    0   -5   41   16    0.000022    0.000000
    0    0   -5   42   16    0.000032    0.000000
    0    0   -5   43   16    0.000002   -0.000000
    0    0   -5   44   16    0.000036    0.000000
    0    0   -5   45   16    0.000006   -0.000000
    0    0   -5   46   16    0.000025    0.000000
    0    0   -5   47   16    0.000024   -0.000000
    0    0   -5   48   16   -0.000027    0.000000
    0    0   -5   49   16   -0.000044    0.000000
    0    0   -5   50   16    0.000001    0.000000
    0    0   -5    1   17    0.000004   -0.000000
    0    0   -5    2   17   -0.000018    0.000000
    0    0   -5    3   17   -0.000012    0.000000
    0    0   -5    4   17    0.000003   -0.000000
    0    0   -5    5   17   -0.000013   -0.000000
    0    0   -5    6   17    0.000027   -0.000000
    0    0   -5    7   17    0.000003    0.000000
    0    0   -5    8   17   -0.000008    0.000000
    0    0   -5    9   17    0.000000    0.000000
    0    0   -5   10   17   -0.000016   -0.000000
    0    0   -5   11   17    0.000017   -0.000000
    0    0   -5   12   17   -0.000047    0.000000
    0    0   -5   13   17   -0.000017    0.000000
    0    0   -5   14   17    0.000026    0.000000
    0    0   -5   15   17   -0.000011    0.000000
    0    0   -5   16   17    0.000001   -0.000000
    0    0   -5   17   17    0.000017   -0.000000
    0    0   -5   18   17   -0.000011   -0.000000
    0    0   -5   19   17    0.000014    0.000000
    0    0   -5   20   17    0.000002   -0.000000
    0    0   -5   21   17   -0.000010   -0.000000
    0    0   -5   22   17    0.000006   -0.000000
    0    0   -5   23   17   -0.000010    0.000000
    0    0   -5   24   17    0.000010    0.000000
    0    0   -5   25   17   -0.000006    0.000000
    0    0   -5   26   17   -0.000012    0.000000
    0    0   -5   27   17    0.000026   -0.000000
    0    0   -5   28   17   -0.000011    0.000000
    0    0   -5   29   17   -0.000023    0.000000
    0    0   -5   30   17    0.000030   -0.000000
    0    0   -5   31   17    0.000021   -0.000000
    0    0   -5   32   17    0.000002   -0.000000
    0    0   -5   33   17   -0.000020   -0.000000
    0    0   -5   34   17   -0.000520    0.000000
    0    0   -5   35   17    0.000001    0.000000
    0    0   -5   36   17   -0.000012   -0.000000
    0    0   -5   37   17   -0.000019    0.000000
    0    0   -5   38   17    0.000018    0.000000
    0    0   -5   39   17   -0.000029    0.000000
    0    0   -5   40   17    0.000014    0.000000
    0    0   -5   41   17    0.000000    0.000000
    0    0   -5   42   17    0.000031   -0.000000
    0    0   -5   43   17    0.000024    0.000000
    0    0   -5   44   17    0.000007    0.000000
    0    0   -5   45   17   -0.000092    0.000000
    0    0   -5   46   17   -0.000063   -0.000000
    0    0   -5   47   17    0.000037   -0.000000
    0    0   -5   48   17   -0.000007   -0.000000
    0    0   -5   49   17    0.000001   -0.000000
    0    0   -5   50   17    0.000037   -0.000000
    0    0   -5    1   18   -0.000001    0.000000
    0    0   -5    2   18    0.000009   -0.000000
    0    0   -5    3   18    0.000011    0.000000
    0    0   -5    4   18   -0.000010    0.000000
    0    0   -5    5   18   -0.000006   -0.000000
    0    0   -5    6   18    0.000014   -0.000000
    0    0   -5    7   18    0.000035   -0.000000
    0    0   -5    8   18   -0.000007   -0.000000
    0    0   -5    9   18   -0.000009    0.000000
    0    0   -5   10   18   -0.000022   -0.000000
    0    0   -5   11   18   -0.000023    0.000000
    0    0   -5   12   18    0.000037   -0.000000
    0    0   -5   13   18    0.000009    0.000000
    0    0   -5   14   18   -0.000030    0.000000
    0    0   -5   15   18    0.000010   -0.000000
    0    0   -5   16   18   -0.000009   -0.000000
    0    0   -5   17   18   -0.000011    0.000000
    0    0   -5   18   18    0.000010   -0.000000
    0    0   -5   19   18    0.000011   -0.000000
    0    0   -5   20   18   -0.000001    0.000000
    0    0   -5   21   18    0.000017   -0.000000
    0    0   -5   22   18   -0.000016   -0.000000
    0    0   -5   23   18    0.000003   -0.000000
    0    0   -5   24   18   -0.000024   -0.000000
    0    0   -5   25   18    0.000023   -0.000000
    0    0   -5   26   18   -0.000002   -0.000000
    0    0   -5   27   18   -0.000011   -0.000000
    0    0   -5   28   18    0.000016    0.000000
    0    0   -5   29   18   -0.000021    0.000000
    0    0   -5   30   18    0.000010   -0.000000
    0    0   -5   31   18    0.000007   -0.000000
    0    0   -5   32   18   -0.000002   -0.000000
    0    0   -5   33   18   -0.000005   -0.000000
    0    0   -5   34   18   -0.000683    0.000000
    0    0   -5   35   18    0.000017   -0.000000
    0    0   -5   36   18    0.000019    0.000000
    0    0   -5   37   18    0.000034    0.000000
    0    0   -5   38   18   -0.000013    0.000000
    0    0   -5   39   18   -0.000049    0.000000
    0    0   -5   40   18   -0.000031    0.000000
    0    0   -5   41   18    0.000002   -0.000000
    0    0   -5   42   18   -0.000013   -0.000000
    0    0   -5   43   18   -0.000018   -0.000000
    0    0   -5   44   18    0.000014    0.000000
    0    0   -5   45   18   -0.000017    0.000000
    0    0   -5   46   18   -0.000011   -0.000000
    0    0   -5   47   18    0.000011   -0.000000
    0    0   -5   48   18   -0.000004    0.000000
    0    0   -5   49   18   -0.000011   -0.000000
    0    0   -5   50   18   -0.000023   -0.000000
    0    0   -5    1   19   -0.000024   -0.000000
    0    0   -5    2   19    0.000004    0.000000
    0    0   -5    3   19    0.000023    0.000000
    0    0   -5    4   19   -0.000013   -0.000000
    0    0   -5    5   19    0.000003    0.000000
    0    0   -5    6   19   -0.000014    0.000000
    0    0   -5    7   19    0.000027   -0.000000
    0    0   -5    8   19    0.000005    0.000000
    0    0   -5    9   19   -0.000025   -0.000000
    0    0   -5   10   19    0.000003   -0.000000
    0    0   -5   11   19    0.000016    0.000000
    0    0   -5   12   19    0.000031   -0.000000
    0    0   -5   13   19   -0.000016   -0.000000
    0    0   -5   14   19   -0.000015   -0.000000
    0    0   -5   15   19   -0.000022   -0.000000
    0    0   -5   16   19    0.000026   -0.000000
    0    0   -5   17   19    0.000014   -0.000000
    0    0   -5   18   19    0.000011    0.000000
    0    0   -5   19   19   -0.000002   -0.000000
    0    0   -5   20   19    0.000013   -0.000000
    0    0   -5   21   19   -0.000007    0.000000
    0    0   -5   22   19    0.000006    0.000000
    0    0   -5   23   19   -0.000004   -0.000000
    0    0   -5   24   19    0.000001   -0.000000
    0    0   -5   25   19   -0.000026    0.000000
    0    0   -5   26   19    0.000012    0.000000
    0    0   -5   27   19   -0.000023    0.000000
    0    0   -5   28   19   -0.000021   -0.000000
    0    0   -5   29   19    0.000041    0.000000
    0    0   -5   30   19    0.000004   -0.000000
    0    0   -5   31   19   -0.000003    0.000000
    0    0   -5   32   19    0.000002   -0.000000
    0    0   -5   33   19    0.000005    0.000000
    0    0   -5   34   19    0.000065   -0.000000
    0    0   -5   35   19    0.000015   -0.000000
    0    0   -5   36   19    0.000006   -0.000000
    0    0   -5   37   19   -0.000048    0.000000
    0    0   -5   38   19    0.000001   -0.000000
    0    0   -5   39   19    0.000062    0.000000
    0    0   -5   40   19    0.000012   -0.000000
    0    0   -5   41   19    0.000001   -0.000000
    0    0   -5   42   19    0.000005   -0.000000
    0    0   -5   43   19   -0.000003   -0.000000
    0    0   -5   44   19   -0.000001   -0.000000
    0    0   -5   45   19    0.000009   -0.000000
    0    0   -5   46   19    0.000008    0.000000
    0    0   -5   47   19   -0.000013    0.000000
    0    0   -5   48   19    0.000021    0.000000
    0    0   -5   49   19   -0.000001    0.000000
    0    0   -5   50   19   -0.000040   -0.000000
    0    0   -5    1   20   -0.000008   -0.000000
    0    0   -5    2   20   -0.000001    0.000000
    0    0   -5    3   20    0.000011   -0.000000
    0    0   -5    4   20   -0.000010   -0.000000
    0    0   -5    5   20   -0.000023   -0.000000
    0    0   -5    6   20   -0.000008   -0.000000
    0    0   -5    7   20    0.000017   -0.000000
    0    0   -5    8   20    0.000009   -0.000000
    0    0   -5    9   20    0.000005    0.000000
    0    0   -5   10   20   -0.000006    0.000000
    0    0   -5   11   20   -0.000013   -0.000000
    0    0   -5   12   20   -0.000005    0.000000
    0    0   -5   13   20    0.000017    0.000000
    0    0   -5   14   20   -0.000024    0.000000
    0    0   -5   15   20    0.000003    0.000000
    0    0   -5   16   20    0.000004   -0.000000
    0    0   -5   17   20    0.000002    0.000000
    0    0   -5   18   20   -0.000001   -0.000000
    0    0   -5   19   20    0.000013    0.000000
    0    0   -5   20   20    0.000011   -0.000000
    0    0   -5   21   20   -0.000014    0.000000
    0    0   -5   22   20    0.000008    0.000000
    0    0   -5   23   20    0.000009    0.000000
    0    0   -5   24   20   -0.000016    0.000000
    0    0   -5   25   20    0.000001   -0.000000
    0    0   -5   26   20   -0.000012   -0.000000
    0    0   -5   27   20    0.000030    0.000000
    0    0   -5   28   20    0.000010   -0.000000
    0    0   -5   29   20    0.000004    0.000000
    0    0   -5   30   20    0.000022   -0.000000
    0    0   -5   31   20    0.000007   -0.000000
    0    0   -5   32   20    0.000027    0.000000
    0    0   -5   33   20    0.000009    0.000000
    0    0   -5   34   20   -0.000013   -0.000000
    0    0   -5   35   20    0.000035    0.000000
    0    0   -5   36   20    0.000007    0.000000
    0    0   -5   37   20   -0.000044   -0.000000
    0    0   -5   38   20   -0.000006   -0.000000
    0    0   -5   39   20   -0.000026    0.000000
    0    0   -5   40   20    0.000037    0.000000
    0    0   -5   41   20    0.000018   -0.000000
    0    0   -5   42   20   -0.000012    0.000000
    0    0   -5   43   20    0.000083    0.000000
    0    0   -5   44   20   -0.000019   -0.000000
    0    0   -5   45   20   -0.000022   -0.000000
    0    0   -5   46   20   -0.000004    0.000000
    0    0   -5   47   20    0.000030    0.000000
    0    0   -5   48   20   -0.000032   -0.000000
    0    0   -5   49   20   -0.000018   -0.000000
    0    0   -5   50   20    0.000039    0.000000
    0    0   -5    1   21    0.000001   -0.000000
    0    0   -5    2   21   -0.000009    0.000000
    0    0   -5    3   21    0.000003   -0.000000
    0    0   -5    4   21    0.000015   -0.000000
    0    0   -5    5   21   -0.000018   -0.000000
    0    0   -5    6   21    0.000006   -0.000000
    0    0   -5    7   21   -0.000004   -0.000000
    0    0   -5    8   21   -0.000007   -0.000000
    0    0   -5    9   21    0.000007   -0.000000
    0    0   -5   10   21   -0.000012    0.000000
    0    0   -5   11   21    0.000030    0.000000
    0    0   -5   12   21    0.000002    0.000000
    0    0   -5   13   21    0.000005   -0.000000
    0    0   -5   14   21    0.000011   -0.000000
    0    0   -5   15   21   -0.000014    0.000000
    0    0   -5   16   21    0.000009    0.000000
    0    0   -5   17   21   -0.000010    0.000000
    0    0   -5   18   21    0.000017    0.000000
    0    0   -5   19   21   -0.000007   -0.000000
    0    0   -5   20   21   -0.000014   -0.000000
    0    0   -5   21   21    0.000017   -0.000000
    0    0   -5   22   21    0.000006    0.000000
    0    0   -5   23   21   -0.000001   -0.000000
    0    0   -5   24   21    0.000028    0.000000
    0    0   -5   25   21    0.000008    0.000000
    0    0   -5   26   21   -0.000046    0.000000
    0    0   -5   27   21    0.000017    0.000000
    0    0   -5   28   21   -0.000023    0.000000
    0    0   -5   29   21    0.000016    0.000000
    0    0   -5   30   21   -0.000012    0.000000
    0    0   -5   31   21    0.000084    0.000000
    0    0   -5   32   21    0.000009   -0.000000
    0    0   -5   33   21   -0.000002   -0.000000
    0    0   -5   34   21    0.000033   -0.000000
    0    0   -5   35   21   -0.000013    0.000000
    0    0   -5   36   21   -0.000036   -0.000000
    0    0   -5   37   21    0.000019   -0.000000
    0    0   -5   38   21    0.000001    0.000000
    0    0   -5   39   21   -0.000168    0.000000
    0    0   -5   40   21    0.000024   -0.000000
    0    0   -5   41   21    0.000008   -0.000000
    0    0   -5   42   21   -0.000016    0.000000
    0    0   -5   43   21   -0.000024   -0.000000
    0    0   -5   44   21   -0.000036    0.000000
    0    0   -5   45   21    0.000014    0.000000
    0    0   -5   46   21    0.000032   -0.000000
    0    0   -5   47   21   -0.000046   -0.000000
    0    0   -5   48   21    0.000003    0.000000
    0    0   -5   49   21    0.000051    0.000000
    0    0   -5   50   21   -0.000020    0.000000
    0    0   -5    1   22   -0.000006   -0.000000
    0    0   -5    2   22   -0.000001   -0.000000
    0    0   -5    3   22   -0.000022   -0.000000
    0    0   -5    4   22    0.000001    0.000000
    0    0   -5    5   22   -0.000004    0.000000
    0    0   -5    6   22    0.000005    0.000000
    0    0   -5    7   22   -0.000017   -0.000000
    0    0   -5    8   22    0.000006    0.000000
    0    0   -5    9   22   -0.000010    0.000000
    0    0   -5   10   22   -0.000006    0.000000
    0    0   -5   11   22    0.000003    0.000000
    0    0   -5   12   22    0.000028   -0.000000
    0    0   -5   13   22   -0.000015    0.000000
    0    0   -5   14   22   -0.000004    0.000000
    0    0   -5   15   22    0.000016    0.000000
    0    0   -5   16   22   -0.000009    0.000000
    0    0   -5   17   22    0.000006    0.000000
    0    0   -5   18   22   -0.000016    0.000000
    0    0   -5   19   22    0.000006   -0.000000
    0    0   -5   20   22    0.000008   -0.000000
    0    0   -5   21   22    0.000006   -0.000000
    0    0   -5   22   22    0.000022   -0.000000
    0    0   -5   23   22   -0.000023   -0.000000
    0    0   -5   24   22    0.000013    0.000000
    0    0   -5   25   22   -0.000001   -0.000000
    0    0   -5   26   22    0.000035   -0.000000
    0    0   -5   27   22   -0.000047    0.000000
    0    0   -5   28   22    0.000036   -0.000000
    0    0   -5   29   22    0.000031   -0.000000
    0    0   -5   30   22   -0.000005    0.000000
    0    0   -5   31   22   -0.000054   -0.000000
    0    0   -5   32   22    0.000006    0.000000
    0    0   -5   33   22    0.000031   -0.000000
    0    0   -5   34   22   -0.000035    0.000000
    0    0   -5   35   22   -0.000025    0.000000
    0    0   -5   36   22    0.000020    0.000000
    0    0   -5   37   22   -0.000020    0.000000
    0    0   -5   38   22    0.000009   -0.000000
    0    0   -5   39   22    0.000580   -0.000000
    0    0   -5   40   22    0.000012   -0.000000
    0    0   -5   41   22   -0.000051    0.000000
    0    0   -5   42   22   -0.000003   -0.000000
    0    0   -5   43   22    0.000006    0.000000
    0    0   -5   44   22    0.000005   -0.000000
    0    0   -5   45   22    0.000052   -0.000000
    0    0   -5   46   22    0.000021    0.000000
    0    0   -5   47   22   -0.000041    0.000000
    0    0   -5   48   22    0.000024   -0.000000
    0    0   -5   49   22    0.000010    0.000000
    0    0   -5   50   22    0.000006   -0.000000
    0    0   -5    1   23   -0.000004   -0.000000
    0    0   -5    2   23   -0.000005    0.000000
    0    0   -5    3   23   -0.000016    0.000000
    0    0   -5    4   23   -0.000027    0.000000
    0    0   -5    5   23   -0.000005    0.000000
    0    0   -5    6   23   -0.000007   -0.000000
    0    0   -5    7   23    0.000004   -0.000000
    0    0   -5    8   23   -0.000032    0.000000
    0    0   -5    9   23   -0.000008   -0.000000
    0    0   -5   10   23    0.000013   -0.000000
    0    0   -5   11   23    0.000005    0.000000
    0    0   -5   12   23   -0.000015    0.000000
    0    0   -5   13   23    0.000032   -0.000000
    0    0   -5   14   23    0.000003   -0.000000
    0    0   -5   15   23    0.000007   -0.000000
    0    0   -5   16   23    0.000032   -0.000000
    0    0   -5   17   23   -0.000010   -0.000000
    0    0   -5   18   23    0.000003    0.000000
    0    0   -5   19   23   -0.000004    0.000000
    0    0   -5   20   23    0.000009   -0.000000
    0    0   -5   21   23   -0.000001    0.000000
    0    0   -5   22   23   -0.000023    0.000000
    0    0   -5   23   23    0.000007   -0.000000
    0    0   -5   24   23    0.000012    0.000000
    0    0   -5   25   23   -0.000001    0.000000
    0    0   -5   26   23    0.000023   -0.000000
    0    0   -5   27   23   -0.000016    0.000000
    0    0   -5   28   23    0.000008   -0.000000
    0    0   -5   29   23   -0.000016   -0.000000
    0    0   -5   30   23    0.000017   -0.000000
    0    0   -5   31   23    0.000006    0.000000
    0    0   -5   32   23    0.000044    0.000000
    0    0   -5   33   23   -0.000040    0.000000
    0    0   -5   34   23   -0.000037    0.000000
    0    0   -5   35   23   -0.000003   -0.000000
    0    0   -5   36   23   -0.000010   -0.000000
    0    0   -5   37   23   -0.000041    0.000000
    0    0   -5   38   23   -0.000011    0.000000
    0    0   -5   39   23    0.000671   -0.000000
    0    0   -5   40   23   -0.000018   -0.000000
    0    0   -5   41   23   -0.000007   -0.000000
    0    0   -5   42   23    0.000077   -0.000000
    0    0   -5   43   23   -0.000041   -0.000000
    0    0   -5   44   23   -0.000021   -0.000000
    0    0   -5   45   23   -0.000045    0.000000
    0    0   -5   46   23    0.000028   -0.000000
    0    0   -5   47   23    0.000035   -0.000000
    0    0   -5   48   23   -0.000021   -0.000000
    0    0   -5   49   23   -0.000004    0.000000
    0    0   -5   50   23    0.000065   -0.000000
    0    0   -5    1   24    0.000004   -0.000000
    0    0   -5    2   24   -0.000029    0.000000
    0    0   -5    3   24    0.000002    0.000000
    0    0   -5    4   24   -0.000015   -0.000000
    0    0   -5    5   24    0.000022    0.000000
    0    0   -5    6   24   -0.000014    0.000000
    0    0   -5    7   24   -0.000020   -0.000000
    0    0   -5    8   24   -0.000010   -0.000000
    0    0   -5    9   24    0.000016   -0.000000
    0    0   -5   10   24   -0.000006    0.000000
    0    0   -5   11   24    0.000011   -0.000000
    0    0   -5   12   24   -0.000004   -0.000000
    0    0   -5   13   24    0.000003   -0.000000
    0    0   -5   14   24    0.000029   -0.000000
    0    0   -5   15   24   -0.000019   -0.000000
    0    0   -5   16   24   -0.000022    0.000000
    0    0   -5   17   24    0.000010   -0.000000
    0    0   -5   18   24   -0.000024    0.000000
    0    0   -5   19   24    0.000001    0.000000
    0    0   -5   20   24   -0.000016   -0.000000
    0    0   -5   21   24    0.000028   -0.000000
    0    0   -5   22   24    0.000013   -0.000000
    0    0   -5   23   24    0.000012   -0.000000
    0    0   -5   24   24    0.000009   -0.000000
    0    0   -5   25   24    0.000018    0.000000
    0    0   -5   26   24    0.000010   -0.000000
    0    0   -5   27   24    0.000026    0.000000
    0    0   -5   28   24   -0.000030    0.000000
    0    0   -5   29   24   -0.000015    0.000000
    0    0   -5   30   24   -0.000024   -0.000000
    0    0   -5   31   24    0.000031   -0.000000
    0    0   -5   32   24   -0.000030    0.000000
    0    0   -5   33   24    0.000022    0.000000
    0    0   -5   34   24    0.000017   -0.000000
    0    0   -5   35   24   -0.000018   -0.000000
    0    0   -5   36   24   -0.000019   -0.000000
    0    0   -5   37   24    0.000003   -0.000000
    0    0   -5   38   24    0.000005    0.000000
    0    0   -5   39   24   -0.000048    0.000000
    0    0   -5   40   24    0.000001   -0.000000
    0    0   -5   41   24    0.000021    0.000000
    0    0   -5   42   24    0.000016   -0.000000
    0    0   -5   43   24    0.000035   -0.000000
    0    0   -5   44   24   -0.000037   -0.000000
    0    0   -5   45   24   -0.000057   -0.000000
    0    0   -5   46   24    0.000011   -0.000000
    0    0   -5   47   24   -0.000000   -0.000000
    0    0   -5   48   24    0.000013   -0.000000
    0    0   -5   49   24    0.000006    0.000000
    0    0   -5   50   24   -0.000005    0.000000
    0    0   -5    1   25    0.000009   -0.000000
    0    0   -5    2   25    0.000006    0.000000
    0    0   -5    3   25   -0.000006    0.000000
    0    0   -5    4   25   -0.000011   -0.000000
    0    0   -5    5   25    0.000011    0.000000
    0    0   -5    6   25   -0.000006   -0.000000
    0    0   -5    7   25   -0.000002    0.000000
    0    0   -5    8   25    0.000009    0.000000
    0    0   -5    9   25   -0.000019   -0.000000
    0    0   -5   10   25    0.000024    0.000000
    0    0   -5   11   25   -0.000014    0.000000
    0    0   -5   12   25    0.000016    0.000000
    0    0   -5   13   25    0.000007    0.000000
    0    0   -5   14   25   -0.000019    0.000000
    0    0   -5   15   25    0.000019   -0.000000
    0    0   -5   16   25   -0.000009   -0.000000
    0    0   -5   17   25   -0.000006   -0.000000
    0    0   -5   18   25    0.000023    0.000000
    0    0   -5   19   25   -0.000026   -0.000000
    0    0   -5   20   25    0.000001    0.000000
    0    0   -5   21   25    0.000008   -0.000000
    0    0   -5   22   25   -0.000001    0.000000
    0    0   -5   23   25   -0.000001   -0.000000
    0    0   -5   24   25    0.000018   -0.000000
    0    0   -5   25   25    0.000004   -0.000000
    0    0   -5   26   25   -0.000012   -0.000000
    0    0   -5   27   25   -0.000011    0.000000
    0    0   -5   28   25    0.000010    0.000000
    0    0   -5   29   25   -0.000022    0.000000
    0    0   -5   30   25    0.000003   -0.000000
    0    0   -5   31   25    0.000007    0.000000
    0    0   -5   32   25   -0.000020    0.000000
    0    0   -5   33   25   -0.000007    0.000000
    0    0   -5   34   25   -0.000002   -0.000000
    0    0   -5   35   25   -0.000024   -0.000000
    0    0   -5   36   25    0.000005    0.000000
    0    0   -5   37   25    0.000021    0.000000
    0    0   -5   38   25    0.000012   -0.000000
    0    0   -5   39   25   -0.000030    0.000000
    0    0   -5   40   25   -0.000025   -0.000000
    0    0   -5   41   25    0.000002    0.000000
    0    0   -5   42   25   -0.000024    0.000000
    0    0   -5   43   25   -0.000045   -0.000000
    0    0   -5   44   25   -0.000013    0.000000
    0    0   -5   45   25    0.000043    0.000000
    0    0   -5   46   25    0.000004   -0.000000
    0    0   -5   47   25    0.000003   -0.000000
    0    0   -5   48   25   -0.000037    0.000000
    0    0   -5   49   25   -0.000002   -0.000000
    0    0   -5   50   25   -0.000024   -0.000000
    0    0   -5    1   26    0.000003    0.000000
    0    0   -5    2   26    0.000023    0.000000
    0    0   -5    3   26   -0.000011   -0.000000
    0    0   -5    4   26    0.000002   -0.000000
    0    0   -5    5   26   -0.000012    0.000000
    0    0   -5    6   26   -0.000006   -0.000000
    0    0   -5    7   26   -0.000007   -0.000000
    0    0   -5    8   26    0.000005   -0.000000
    0    0   -5    9   26   -0.000009    0.000000
    0    0   -5   10   26    0.000005   -0.000000
    0    0   -5   11   26    0.000009    0.000000
    0    0   -5   12   26   -0.000008   -0.000000
    0    0   -5   13   26    0.000033   -0.000000
    0    0   -5   14   26   -0.000022   -0.000000
    0    0   -5   15   26   -0.000009   -0.000000
    0    0   -5   16   26    0.000026    0.000000
    0    0   -5   17   26   -0.000012   -0.000000
    0    0   -5   18   26   -0.000002    0.000000
    0    0   -5   19   26    0.000012   -0.000000
    0    0   -5   20   26   -0.000012    0.000000
    0    0   -5   21   26   -0.000046   -0.000000
    0    0   -5   22   26    0.000035    0.000000
    0    0   -5   23   26    0.000023    0.000000
    0    0   -5   24   26    0.000010    0.000000
    0    0   -5   25   26   -0.000012    0.000000
    0    0   -5   26   26    0.000017   -0.000000
    0    0   -5   27   26    0.000002    0.000000
    0    0   -5   28   26   -0.000009   -0.000000
    0    0   -5   29   26    0.000026    0.000000
    0    0   -5   30   26    0.000005    0.000000
    0    0   -5   31   26    0.000004    0.000000
    0    0   -5   32   26    0.000037    0.000000
    0    0   -5   33   26    0.000004    0.000000
    0    0   -5   34   26    0.000026   -0.000000
    0    0   -5   35   26    0.000024   -0.000000
    0    0   -5   36   26   -0.000030    0.000000
    0    0   -5   37   26   -0.000042    0.000000
    0    0   -5   38   26    0.000001   -0.000000
    0    0   -5   39   26    0.000024   -0.000000
    0    0   -5   40   26    0.000031   -0.000000
    0    0   -5   41   26    0.000024    0.000000
    0    0   -5   42   26    0.000018    0.000000
    0    0   -5   43   26   -0.000031   -0.000000
    0    0   -5   44   26    0.000009   -0.000000
    0    0   -5   45   26    0.000011   -0.000000
    0    0   -5   46   26    0.000091    0.000000
    0    0   -5   47   26   -0.000001   -0.000000
    0    0   -5   48   26    0.000006    0.000000
    0    0   -5   49   26    0.000004    0.000000
    0    0   -5   50   26   -0.000008    0.000000
    0    0   -5    1   27    0.000004   -0.000000
    0    0   -5    2   27   -0.000018   -0.000000
    0    0   -5    3   27   -0.000012   -0.000000
    0    0   -5    4   27    0.000003    0.000000
    0    0   -5    5   27   -0.000013   -0.000000
    0    0   -5    6   27   -0.000010    0.000000
    0    0   -5    7   27    0.000011   -0.000000
    0    0   -5    8   27   -0.000010    0.000000
    0    0   -5    9   27    0.000006   -0.000000
    0    0   -5   10   27   -0.000011   -0.000000
    0    0   -5   11   27   -0.000010    0.000000
    0    0   -5   12   27    0.000006   -0.000000
    0    0   -5   13   27   -0.000012    0.000000
    0    0   -5   14   27    0.000010   -0.000000
    0    0   -5   15   27   -0.000005   -0.000000
    0    0   -5   16   27   -0.000012   -0.000000
    0    0   -5   17   27    0.000026    0.000000
    0    0   -5   18   27   -0.000011    0.000000
    0    0   -5   19   27   -0.000023   -0.000000
    0    0   -5   20   27    0.000030   -0.000000
    0    0   -5   21   27    0.000017   -0.000000
    0    0   -5   22   27   -0.000047   -0.000000
    0    0   -5   23   27   -0.000016   -0.000000
    0    0   -5   24   27    0.000026   -0.000000
    0    0   -5   25   27   -0.000011   -0.000000
    0    0   -5   26   27    0.000002   -0.000000
    0    0   -5   27   27    0.000017   -0.000000
    0    0   -5   28   27   -0.000013   -0.000000
    0    0   -5   29   27    0.000014   -0.000000
    0    0   -5   30   27    0.000001   -0.000000
    0    0   -5   31   27    0.000026   -0.000000
    0    0   -5   32   27    0.000007    0.000000
    0    0   -5   33   27   -0.000090   -0.000000
    0    0   -5   34   27   -0.000066    0.000000
    0    0   -5   35   27    0.000037    0.000000
    0    0   -5   36   27   -0.000006   -0.000000
    0    0   -5   37   27   -0.000000   -0.000000
    0    0   -5   38   27    0.000038    0.000000
    0    0   -5   39   27    0.000002    0.000000
    0    0   -5   40   27    0.000030    0.000000
    0    0   -5   41   27   -0.000029    0.000000
    0    0   -5   42   27    0.000016    0.000000
    0    0   -5   43   27    0.000021    0.000000
    0    0   -5   44   27    0.000002    0.000000
    0    0   -5   45   27   -0.000018    0.000000
    0    0   -5   46   27   -0.000497   -0.000000
    0    0   -5   47   27    0.000001    0.000000
    0    0   -5   48   27   -0.000018   -0.000000
    0    0   -5   49   27   -0.000018   -0.000000
    0    0   -5   50   27    0.000016   -0.000000
    0    0   -5    1   28   -0.000000    0.000000
    0    0   -5    2   28    0.000009    0.000000
    0    0   -5    3   28    0.000011   -0.000000
    0    0   -5    4   28   -0.000010    0.000000
    0    0   -5    5   28   -0.000006   -0.000000
    0    0   -5    6   28   -0.000008   -0.000000
    0    0   -5    7   28    0.000012    0.000000
    0    0   -5    8   28   -0.000018    0.000000
    0    0   -5    9   28    0.000010    0.000000
    0    0   -5   10   28   -0.000003   -0.000000
    0    0   -5   11   28    0.000017    0.000000
    0    0   -5   12   28   -0.000017    0.000000
    0    0   -5   13   28    0.000002    0.000000
    0    0   -5   14   28   -0.000024    0.000000
    0    0   -5   15   28    0.000023   -0.000000
    0    0   -5   16   28   -0.000002   -0.000000
    0    0   -5   17   28   -0.000011   -0.000000
    0    0   -5   18   28    0.000016   -0.000000
    0    0   -5   19   28   -0.000021    0.000000
    0    0   -5   20   28    0.000010    0.000000
    0    0   -5   21   28   -0.000023   -0.000000
    0    0   -5   22   28    0.000036    0.000000
    0    0   -5   23   28    0.000008    0.000000
    0    0   -5   24   28   -0.000030   -0.000000
    0    0   -5   25   28    0.000010   -0.000000
    0    0   -5   26   28   -0.000009    0.000000
    0    0   -5   27   28   -0.000013    0.000000
    0    0   -5   28   28    0.000010   -0.000000
    0    0   -5   29   28    0.000012    0.000000
    0    0   -5   30   28   -0.000001    0.000000
    0    0   -5   31   28   -0.000018   -0.000000
    0    0   -5   32   28    0.000014    0.000000
    0    0   -5   33   28   -0.000015   -0.000000
    0    0   -5   34   28   -0.000014    0.000000
    0    0   -5   35   28    0.000009    0.000000
    0    0   -5   36   28   -0.000004    0.000000
    0    0   -5   37   28   -0.000009   -0.000000
    0    0   -5   38   28   -0.000022    0.000000
    0    0   -5   39   28    0.000004    0.000000
    0    0   -5   40   28   -0.000014    0.000000
    0    0   -5   41   28   -0.000049    0.000000
    0    0   -5   42   28   -0.000030    0.000000
    0    0   -5   43   28    0.000006    0.000000
    0    0   -5   44   28   -0.000003    0.000000
    0    0   -5   45   28   -0.000005    0.000000
    0    0   -5   46   28   -0.000655   -0.000000
    0    0   -5   47   28    0.000018   -0.000000
    0    0   -5   48   28    0.000019    0.000000
    0    0   -5   49   28    0.000034    0.000000
    0    0   -5   50   28   -0.000015    0.000000
    0    0   -5    1   29   -0.000024    0.000000
    0    0   -5    2   29    0.000005   -0.000000
    0    0   -5    3   29    0.000023    0.000000
    0    0   -5    4   29   -0.000013    0.000000
    0    0   -5    5   29    0.000003   -0.000000
    0    0   -5    6   29   -0.000018    0.000000
    0    0   -5    7   29   -0.000010   -0.000000
    0    0   -5    8   29    0.000017    0.000000
    0    0   -5    9   29   -0.000011    0.000000
    0    0   -5   10   29   -0.000014    0.000000
    0    0   -5   11   29   -0.000008   -0.000000
    0    0   -5   12   29    0.000006   -0.000000
    0    0   -5   13   29   -0.000004   -0.000000
    0    0   -5   14   29    0.000002    0.000000
    0    0   -5   15   29   -0.000026    0.000000
    0    0   -5   16   29    0.000012    0.000000
    0    0   -5   17   29   -0.000023   -0.000000
    0    0   -5   18   29   -0.000021   -0.000000
    0    0   -5   19   29    0.000041   -0.000000
    0    0   -5   20   29    0.000004   -0.000000
    0    0   -5   21   29    0.000016   -0.000000
    0    0   -5   22   29    0.000031    0.000000
    0    0   -5   23   29   -0.000016    0.000000
    0    0   -5   24   29   -0.000015   -0.000000
    0    0   -5   25   29   -0.000022   -0.000000
    0    0   -5   26   29    0.000026   -0.000000
    0    0   -5   27   29    0.000014    0.000000
    0    0   -5   28   29    0.000012   -0.000000
    0    0   -5   29   29   -0.000002   -0.000000
    0    0   -5   30   29    0.000012    0.000000
    0    0   -5   31   29   -0.000001   -0.000000
    0    0   -5   32   29   -0.000002    0.000000
    0    0   -5   33   29    0.000009    0.000000
    0    0   -5   34   29    0.000009   -0.000000
    0    0   -5   35   29   -0.000013    0.000000
    0    0   -5   36   29    0.000021    0.000000
    0    0   -5   37   29    0.000002   -0.000000
    0    0   -5   38   29   -0.000039    0.000000
    0    0   -5   39   29    0.000002   -0.000000
    0    0   -5   40   29    0.000005    0.000000
    0    0   -5   41   29    0.000063   -0.000000
    0    0   -5   42   29    0.000012   -0.000000
    0    0   -5   43   29   -0.000002    0.000000
    0    0   -5   44   29    0.000002   -0.000000
    0    0   -5   45   29    0.000005    0.000000
    0    0   -5   46   29    0.000062    0.000000
    0    0   -5   47   29    0.000015   -0.000000
    0    0   -5   48   29    0.000004   -0.000000
    0    0   -5   49   29   -0.000048   -0.000000
    0    0   -5   50   29   -0.000002    0.000000
    0    0   -5    1   30   -0.000008   -0.000000
    0    0   -5    2   30   -0.000001   -0.000000
    0    0   -5    3   30    0.000012   -0.000000
    0    0   -5    4   30   -0.000009   -0.000000
    0    0   -5    5   30   -0.000023    0.000000
    0    0   -5    6   30   -0.000003   -0.000000
    0    0   -5    7   30    0.000009   -0.000000
    0    0   -5    8   30   -0.000001   -0.000000
    0    0   -5    9   30   -0.000020   -0.000000
    0    0   -5   10   30   -0.000000    0.000000
    0    0   -5   11   30   -0.000014   -0.000000
    0    0   -5   12   30    0.000009   -0.000000
    0    0   -5   13   30    0.000008   -0.000000
    0    0   -5   14   30   -0.000016    0.000000
    0    0   -5   15   30    0.000002   -0.000000
    0    0   -5   16   30   -0.000011   -0.000000
    0    0   -5   17   30    0.000030    0.000000
    0    0   -5   18   30    0.000010    0.000000
    0    0   -5   19   30    0.000004    0.000000
    0    0   -5   20   30    0.000022    0.000000
    0    0   -5   21   30   -0.000012   -0.000000
    0    0   -5   22   30   -0.000005   -0.000000
    0    0   -5   23   30    0.000017    0.000000
    0    0   -5   24   30   -0.000024    0.000000
    0    0   -5   25   30    0.000003    0.000000
    0    0   -5   26   30    0.000005   -0.000000
    0    0   -5   27   30    0.000001    0.000000
    0    0   -5   28   30   -0.000001   -0.000000
    0    0   -5   29   30    0.000012   -0.000000
    0    0   -5   30   30    0.000011   -0.000000
    0    0   -5   31   30    0.000054    0.000000
    0    0   -5   32   30   -0.000018   -0.000000
    0    0   -5   33   30   -0.000021   -0.000000
    0    0   -5   34   30   -0.000004   -0.000000
    0    0   -5   35   30    0.000031    0.000000
    0    0   -5   36   30   -0.000031    0.000000
    0    0   -5   37   30   -0.000016    0.000000
    0    0   -5   38   30    0.000039    0.000000
    0    0   -5   39   30    0.000018   -0.000000
    0    0   -5   40   30   -0.000012   -0.000000
    0    0   -5   41   30   -0.000025   -0.000000
    0    0   -5   42   30    0.000035    0.000000
    0    0   -5   43   30    0.000006   -0.000000
    0    0   -5   44   30    0.000026    0.000000
    0    0   -5   45   30    0.000009    0.000000
    0    0   -5   46   30   -0.000013    0.000000
    0    0   -5   47   30    0.000034    0.000000
    0    0   -5   48   30    0.000004   -0.000000
    0    0   -5   49   30   -0.000045    0.000000
    0    0   -5   50   30   -0.000008   -0.000000
    0    0   -5    1   31    0.000029   -0.000000
    0    0   -5    2   31   -0.000043    0.000000
    0    0   -5    3   31   -0.000044    0.000000
    0    0   -5    4   31   -0.000019    0.000000
    0    0   -5    5   31   -0.000035    0.000000
    0    0   -5    6   31   -0.000045    0.000000
    0    0   -5    7   31   -0.000018   -0.000000
    0    0   -5    8   31   -0.000008   -0.000000
    0    0   -5    9   31   -0.000021   -0.000000
    0    0   -5   10   31   -0.000074    0.000000
    0    0   -5   11   31   -0.000023    0.000000
    0    0   -5   12   31    0.000004   -0.000000
    0    0   -5   13   31   -0.000041    0.000000
    0    0   -5   14   31    0.000035   -0.000000
    0    0   -5   15   31   -0.000045    0.000000
    0    0   -5   16   31   -0.000030    0.000000
    0    0   -5   17   31    0.000021    0.000000
    0    0   -5   18   31    0.000007    0.000000
    0    0   -5   19   31   -0.000003   -0.000000
    0    0   -5   20   31    0.000007    0.000000
    0    0   -5   21   31    0.000084   -0.000000
    0    0   -5   22   31   -0.000054    0.000000
    0    0   -5   23   31    0.000006   -0.000000
    0    0   -5   24   31    0.000031    0.000000
    0    0   -5   25   31    0.000007   -0.000000
    0    0   -5   26   31    0.000004   -0.000000
    0    0   -5   27   31    0.000026    0.000000
    0    0   -5   28   31   -0.000018    0.000000
    0    0   -5   29   31   -0.000001    0.000000
    0    0   -5   30   31    0.000054   -0.000000
    0    0   -5   31   31    0.000066   -0.000000
    0    0   -5   32   31   -0.000004    0.000000
    0    0   -5   33   31    0.000042    0.000000
    0    0   -5   34   31   -0.000010   -0.000000
    0    0   -5   35   31    0.000038   -0.000000
    0    0   -5   36   31    0.000040   -0.000000
    0    0   -5   37   31    0.000036   -0.000000
    0    0   -5   38   31    0.000051   -0.000000
    0    0   -5   39   31    0.000038   -0.000000
    0    0   -5   40   31   -0.000027   -0.000000
    0    0   -5   41   31   -0.000082    0.000000
    0    0   -5   42   31    0.000095    0.000000
    0    0   -5   43   31    0.000109    0.000000
    0    0   -5   44   31   -0.000084   -0.000000
    0    0   -5   45   31   -0.000071    0.000000
    0    0   -5   46   31    0.000014   -0.000000
    0    0   -5   47   31   -0.000014   -0.000000
    0    0   -5   48   31   -0.000097   -0.000000
    0    0   -5   49   31   -0.000007   -0.000000
    0    0   -5   50   31    0.000035   -0.000000
    0    0   -5    1   32    0.000019   -0.000000
    0    0   -5    2   32    0.000008   -0.000000
    0    0   -5    3   32    0.000010   -0.000000
    0    0   -5    4   32    0.000010   -0.000000
    0    0   -5    5   32    0.000017    0.000000
    0    0   -5    6   32   -0.000017   -0.000000
    0    0   -5    7   32   -0.000043   -0.000000
    0    0   -5    8   32   -0.000011   -0.000000
    0    0   -5    9   32   -0.000017    0.000000
    0    0   -5   10   32   -0.000005   -0.000000
    0    0   -5   11   32   -0.000035   -0.000000
    0    0   -5   12   32    0.000003    0.000000
    0    0   -5   13   32   -0.000019   -0.000000
    0    0   -5   14   32   -0.000034    0.000000
    0    0   -5   15   32   -0.000010    0.000000
    0    0   -5   16   32    0.000010    0.000000
    0    0   -5   17   32    0.000002    0.000000
    0    0   -5   18   32   -0.000002    0.000000
    0    0   -5   19   32    0.000002    0.000000
    0    0   -5   20   32    0.000027   -0.000000
    0    0   -5   21   32    0.000009    0.000000
    0    0   -5   22   32    0.000006   -0.000000
    0    0   -5   23   32    0.000044   -0.000000
    0    0   -5   24   32   -0.000030   -0.000000
    0    0   -5   25   32   -0.000020   -0.000000
    0    0   -5   26   32    0.000037   -0.000000
    0    0   -5   27   32    0.000007   -0.000000
    0    0   -5   28   32    0.000014   -0.000000
    0    0   -5   29   32   -0.000002   -0.000000
    0    0   -5   30   32   -0.000018    0.000000
    0    0   -5   31   32   -0.000004   -0.000000
    0    0   -5   32   32    0.000046   -0.000000
    0    0   -5   33   32    0.000046   -0.000000
    0    0   -5   34   32    0.000031   -0.000000
    0    0   -5   35   32    0.000023   -0.000000
    0    0   -5   36   32   -0.000026    0.000000
    0    0   -5   37   32    0.000029   -0.000000
    0    0   -5   38   32    0.000041   -0.000000
    0    0   -5   39   32    0.000058   -0.000000
    0    0   -5   40   32   -0.000046    0.000000
    0    0   -5   41   32    0.000083    0.000000
    0    0   -5   42   32    0.000096    0.000000
    0    0   -5   43   32   -0.000083    0.000000
    0    0   -5   44   32    0.000075    0.000000
    0    0   -5   45   32   -0.000089    0.000000
    0    0   -5   46   32   -0.000069   -0.000000
    0    0   -5   47   32    0.000052   -0.000000
[...]
    0    0    5    2   43   -0.000045    0.000000
    0    0    5    3   43   -0.000044    0.000000
    0    0    5    4   43   -0.000018   -0.000000
    0    0    5    5   43   -0.000035    0.000000
    0    0    5    6   43    0.000025   -0.000000
    0    0    5    7   43   -0.000012   -0.000000
    0    0    5    8   43   -0.000001    0.000000
    0    0    5    9   43    0.000008   -0.000000
    0    0    5   10   43    0.000034   -0.000000
    0    0    5   11   43    0.000107   -0.000000
    0    0    5   12   43   -0.000059    0.000000
    0    0    5   13   43    0.000007   -0.000000
    0    0    5   14   43    0.000029    0.000000
    0    0    5   15   43    0.000005    0.000000
    0    0    5   16   43    0.000002    0.000000
    0    0    5   17   43    0.000024   -0.000000
    0    0    5   18   43   -0.000018    0.000000
    0    0    5   19   43   -0.000003    0.000000
    0    0    5   20   43    0.000083   -0.000000
    0    0    5   21   43   -0.000024    0.000000
    0    0    5   22   43    0.000006   -0.000000
    0    0    5   23   43   -0.000041    0.000000
    0    0    5   24   43    0.000035    0.000000
    0    0    5   25   43   -0.000045    0.000000
    0    0    5   26   43   -0.000031    0.000000
    0    0    5   27   43    0.000021   -0.000000
    0    0    5   28   43    0.000006   -0.000000
    0    0    5   29   43   -0.000002   -0.000000
    0    0    5   30   43    0.000006    0.000000
    0    0    5   31   43    0.000109   -0.000000
    0    0    5   32   43   -0.000083   -0.000000
    0    0    5   33   43   -0.000071    0.000000
    0    0    5   34   43    0.000014   -0.000000
    0    0    5   35   43   -0.000014   -0.000000
    0    0    5   36   43   -0.000097   -0.000000
    0    0    5   37   43   -0.000006   -0.000000
    0    0    5   38   43    0.000037   -0.000000
    0    0    5   39   43   -0.000083   -0.000000
    0    0    5   40   43    0.000094   -0.000000
    0    0    5   41   43    0.000038   -0.000000
    0    0    5   42   43   -0.000027   -0.000000
    0    0    5   43   43    0.000064    0.000000
    0    0    5   44   43   -0.000005   -0.000000
    0    0    5   45   43    0.000041    0.000000
    0    0    5   46   43   -0.000010    0.000000
    0    0    5   47   43    0.000052   -0.000000
    0    0    5   48   43    0.000058   -0.000000
    0    0    5   49   43    0.000051   -0.000000
    0    0    5   50   43    0.000051   -0.000000
    0    0    5    1   44    0.000017   -0.000000
    0    0    5    2   44    0.000008    0.000000
    0    0    5    3   44    0.000010    0.000000
    0    0    5    4   44    0.000009    0.000000
    0    0    5    5   44    0.000017   -0.000000
    0    0    5    6   44    0.000013   -0.000000
    0    0    5    7   44    0.000013    0.000000
    0    0    5    8   44   -0.000005    0.000000
    0    0    5    9   44    0.000039   -0.000000
    0    0    5   10   44    0.000038    0.000000
    0    0    5   11   44    0.000009   -0.000000
    0    0    5   12   44    0.000007   -0.000000
    0    0    5   13   44    0.000044   -0.000000
    0    0    5   14   44   -0.000031    0.000000
    0    0    5   15   44   -0.000021   -0.000000
    0    0    5   16   44    0.000036   -0.000000
    0    0    5   17   44    0.000007   -0.000000
    0    0    5   18   44    0.000014   -0.000000
    0    0    5   19   44   -0.000001    0.000000
    0    0    5   20   44   -0.000019    0.000000
    0    0    5   21   44   -0.000036   -0.000000
    0    0    5   22   44    0.000005    0.000000
    0    0    5   23   44   -0.000021    0.000000
    0    0    5   24   44   -0.000037    0.000000
    0    0    5   25   44   -0.000013   -0.000000
    0    0    5   26   44    0.000009    0.000000
    0    0    5   27   44    0.000002   -0.000000
    0    0    5   28   44   -0.000003   -0.000000
    0    0    5   29   44    0.000002    0.000000
    0    0    5   30   44    0.000026   -0.000000
    0    0    5   31   44   -0.000084    0.000000
    0    0    5   32   44    0.000075   -0.000000
    0    0    5   33   44   -0.000089    0.000000
    0    0    5   34   44   -0.000069   -0.000000
    0    0    5   35   44    0.000050   -0.000000
    0    0    5   36   44   -0.000025    0.000000
    0    0    5   37   44   -0.000077    0.000000
    0    0    5   38   44   -0.000066   -0.000000
    0    0    5   39   44    0.000081   -0.000000
    0    0    5   40   44    0.000096   -0.000000
    0    0    5   41   44    0.000058    0.000000
    0    0    5   42   44   -0.000045   -0.000000
    0    0    5   43   44   -0.000005    0.000000
    0    0    5   44   44    0.000044    0.000000
    0    0    5   45   44    0.000045    0.000000
    0    0    5   46   44    0.000030    0.000000
    0    0    5   47   44    0.000023   -0.000000
    0    0    5   48   44   -0.000012    0.000000
    0    0    5   49   44    0.000028    0.000000
    0    0    5   50   44    0.000040   -0.000000
    0    0    5    1   45   -0.000033    0.000000
    0    0    5    2   45   -0.000007    0.000000
    0    0    5    3   45   -0.000031    0.000000
    0    0    5    4   45   -0.000043   -0.000000
    0    0    5    5   45   -0.000027   -0.000000
    0    0    5    6   45   -0.000013   -0.000000
    0    0    5    7   45    0.000012    0.000000
    0    0    5    8   45    0.000024    0.000000
    0    0    5    9   45   -0.000023   -0.000000
    0    0    5   10   45    0.000016    0.000000
    0    0    5   11   45   -0.000003    0.000000
    0    0    5   12   45    0.000030   -0.000000
    0    0    5   13   45   -0.000043    0.000000
    0    0    5   14   45    0.000019   -0.000000
    0    0    5   15   45   -0.000008   -0.000000
    0    0    5   16   45    0.000006    0.000000
    0    0    5   17   45   -0.000092   -0.000000
    0    0    5   18   45   -0.000017   -0.000000
    0    0    5   19   45    0.000009    0.000000
    0    0    5   20   45   -0.000022    0.000000
    0    0    5   21   45    0.000014   -0.000000
    0    0    5   22   45    0.000052    0.000000
    0    0    5   23   45   -0.000045   -0.000000
    0    0    5   24   45   -0.000057    0.000000
    0    0    5   25   45    0.000043   -0.000000
    0    0    5   26   45    0.000011    0.000000
    0    0    5   27   45   -0.000018   -0.000000
    0    0    5   28   45   -0.000005   -0.000000
    0    0    5   29   45    0.000005   -0.000000
    0    0    5   30   45    0.000009   -0.000000
    0    0    5   31   45   -0.000071   -0.000000
    0    0    5   32   45   -0.000089   -0.000000
    0    0    5   33   45    0.000124    0.000000
    0    0    5   34   45   -0.000085    0.000000
    0    0    5   35   45   -0.000071    0.000000
    0    0    5   36   45    0.000025    0.000000
    0    0    5   37   45    0.000010    0.000000
    0    0    5   38   45   -0.000076    0.000000
    0    0    5   39   45    0.000030   -0.000000
    0    0    5   40   45   -0.000026    0.000000
    0    0    5   41   45    0.000381    0.000000
    0    0    5   42   45   -0.000032    0.000000
    0    0    5   43   45    0.000041   -0.000000
    0    0    5   44   45    0.000045   -0.000000
    0    0    5   45   45    0.000111    0.000000
    0    0    5   46   45   -0.000002    0.000000
    0    0    5   47   45    0.000036   -0.000000
    0    0    5   48   45    0.000060    0.000000
    0    0    5   49   45    0.000013    0.000000
    0    0    5   50   45    0.000018    0.000000
    0    0    5    1   46    0.000006   -0.000000
    0    0    5    2   46    0.000003    0.000000
    0    0    5    3   46   -0.000007    0.000000
    0    0    5    4   46   -0.000123    0.000000
    0    0    5    5   46   -0.000189    0.000000
    0    0    5    6   46    0.000014   -0.000000
    0    0    5    7   46   -0.000002    0.000000
    0    0    5    8   46    0.000049   -0.000000
    0    0    5    9   46    0.000108   -0.000000
    0    0    5   10   46    0.000006    0.000000
    0    0    5   11   46    0.000031   -0.000000
    0    0    5   12   46   -0.000035   -0.000000
    0    0    5   13   46   -0.000037    0.000000
    0    0    5   14   46    0.000016    0.000000
    0    0    5   15   46   -0.000002    0.000000
    0    0    5   16   46    0.000025   -0.000000
    0    0    5   17   46   -0.000063    0.000000
    0    0    5   18   46   -0.000011    0.000000
    0    0    5   19   46    0.000008   -0.000000
    0    0    5   20   46   -0.000004   -0.000000
    0    0    5   21   46    0.000032    0.000000
    0    0    5   22   46    0.000021   -0.000000
    0    0    5   23   46    0.000028    0.000000
    0    0    5   24   46    0.000011    0.000000
    0    0    5   25   46    0.000004    0.000000
    0    0    5   26   46    0.000091   -0.000000
    0    0    5   27   46   -0.000497    0.000000
    0    0    5   28   46   -0.000655    0.000000
    0    0    5   29   46    0.000062   -0.000000
    0    0    5   30   46   -0.000013   -0.000000
    0    0    5   31   46    0.000014    0.000000
    0    0    5   32   46   -0.000069    0.000000
    0    0    5   33   46   -0.000085    0.000000
    0    0    5   34   46    0.000063   -0.000000
    0    0    5   35   46   -0.000112   -0.000000
    0    0    5   36   46   -0.000087   -0.000000
    0    0    5   37   46   -0.000014    0.000000
    0    0    5   38   46   -0.000023    0.000000
    0    0    5   39   46   -0.000097   -0.000000
    0    0    5   40   46    0.000022    0.000000
    0    0    5   41   46    0.000330    0.000000
    0    0    5   42   46    0.000306   -0.000000
    0    0    5   43   46   -0.000010   -0.000000
    0    0    5   44   46    0.000030   -0.000000
    0    0    5   45   46   -0.000002   -0.000000
    0    0    5   46   46    0.000083    0.000000
    0    0    5   47   46    0.000009   -0.000000
    0    0    5   48   46    0.000050   -0.000000
    0    0    5   49   46    0.000051   -0.000000
    0    0    5   50   46   -0.000331    0.000000
    0    0    5    1   47   -0.000007    0.000000
    0    0    5    2   47   -0.000010    0.000000
    0    0    5    3   47   -0.000031   -0.000000
    0    0    5    4   47   -0.000015   -0.000000
    0    0    5    5   47   -0.000031    0.000000
    0    0    5    6   47    0.000008   -0.000000
    0    0    5    7   47    0.000028   -0.000000
    0    0    5    8   47    0.000016    0.000000
    0    0    5    9   47    0.000034    0.000000
    0    0    5   10   47    0.000009    0.000000
    0    0    5   11   47   -0.000015   -0.000000
    0    0    5   12   47   -0.000028   -0.000000
    0    0    5   13   47   -0.000004    0.000000
    0    0    5   14   47   -0.000017    0.000000
    0    0    5   15   47   -0.000022    0.000000
    0    0    5   16   47    0.000024    0.000000
    0    0    5   17   47    0.000037    0.000000
    0    0    5   18   47    0.000011    0.000000
    0    0    5   19   47   -0.000013   -0.000000
    0    0    5   20   47    0.000030   -0.000000
    0    0    5   21   47   -0.000046    0.000000
    0    0    5   22   47   -0.000041   -0.000000
    0    0    5   23   47    0.000035    0.000000
    0    0    5   24   47   -0.000000    0.000000
    0    0    5   25   47    0.000003    0.000000
    0    0    5   26   47   -0.000001    0.000000
    0    0    5   27   47    0.000001   -0.000000
    0    0    5   28   47    0.000018    0.000000
    0    0    5   29   47    0.000015    0.000000
    0    0    5   30   47    0.000034   -0.000000
    0    0    5   31   47   -0.000014    0.000000
    0    0    5   32   47    0.000052    0.000000
    0    0    5   33   47   -0.000071   -0.000000
    0    0    5   34   47   -0.000112   -0.000000
    0    0    5   35   47    0.000112    0.000000
    0    0    5   36   47   -0.000100    0.000000
    0    0    5   37   47   -0.000078   -0.000000
    0    0    5   38   47    0.000096    0.000000
    0    0    5   39   47    0.000012   -0.000000
    0    0    5   40   47    0.000093    0.000000
    0    0    5   41   47    0.000358    0.000000
    0    0    5   42   47   -0.000039    0.000000
    0    0    5   43   47    0.000052    0.000000
    0    0    5   44   47    0.000023    0.000000
    0    0    5   45   47    0.000036    0.000000
    0    0    5   46   47    0.000009    0.000000
    0    0    5   47   47    0.000088    0.000000
    0    0    5   48   47    0.000004    0.000000
    0    0    5   49   47    0.000034    0.000000
    0    0    5   50   47    0.000030   -0.000000
    0    0    5    1   48    0.000001    0.000000
    0    0    5    2   48    0.000003   -0.000000
    0    0    5    3   48   -0.000002   -0.000000
    0    0    5    4   48    0.000003   -0.000000
    0    0    5    5   48    0.000008   -0.000000
    0    0    5    6   48    0.000010    0.000000
    0    0    5    7   48    0.000002   -0.000000
    0    0    5    8   48    0.000061    0.000000
    0    0    5    9   48    0.000043   -0.000000
    0    0    5   10   48    0.000009   -0.000000
    0    0    5   11   48   -0.000036   -0.000000
    0    0    5   12   48    0.000019   -0.000000
    0    0    5   13   48   -0.000010   -0.000000
    0    0    5   14   48   -0.000021    0.000000
    0    0    5   15   48    0.000009   -0.000000
    0    0    5   16   48   -0.000027   -0.000000
    0    0    5   17   48   -0.000007    0.000000
    0    0    5   18   48   -0.000004   -0.000000
    0    0    5   19   48    0.000021   -0.000000
    0    0    5   20   48   -0.000032    0.000000
    0    0    5   21   48    0.000003   -0.000000
    0    0    5   22   48    0.000024    0.000000
    0    0    5   23   48   -0.000021    0.000000
    0    0    5   24   48    0.000013    0.000000
    0    0    5   25   48   -0.000037   -0.000000
    0    0    5   26   48    0.000006   -0.000000
    0    0    5   27   48   -0.000018    0.000000
    0    0    5   28   48    0.000019   -0.000000
    0    0    5   29   48    0.000004    0.000000
    0    0    5   30   48    0.000004    0.000000
    0    0    5   31   48   -0.000097    0.000000
    0    0    5   32   48   -0.000021    0.000000
    0    0    5   33   48    0.000027   -0.000000
    0    0    5   34   48   -0.000087   -0.000000
    0    0    5   35   48   -0.000100   -0.000000
    0    0    5   36   48    0.000072    0.000000
    0    0    5   37   48   -0.000086    0.000000
    0    0    5   38   48   -0.000076   -0.000000
    0    0    5   39   48    0.000067   -0.000000
    0    0    5   40   48    0.000012    0.000000
    0    0    5   41   48    0.000011   -0.000000
    0    0    5   42   48   -0.000003    0.000000
    0    0    5   43   48    0.000058    0.000000
    0    0    5   44   48   -0.000012   -0.000000
    0    0    5   45   48    0.000060   -0.000000
    0    0    5   46   48    0.000050    0.000000
    0    0    5   47   48    0.000004   -0.000000
    0    0    5   48   48    0.000066    0.000000
    0    0    5   49   48   -0.000000   -0.000000
    0    0    5   50   48    0.000045    0.000000
    0    0    5    1   49   -0.000011    0.000000
    0    0    5    2   49   -0.000049   -0.000000
    0    0    5    3   49   -0.000007   -0.000000
    0    0    5    4   49   -0.000024   -0.000000
    0    0    5    5   49   -0.000030    0.000000
    0    0    5    6   49    0.000005    0.000000
    0    0    5    7   49    0.000010    0.000000
    0    0    5    8   49    0.000012   -0.000000
    0    0    5    9   49    0.000006    0.000000
    0    0    5   10   49    0.000009   -0.000000
    0    0    5   11   49    0.000018   -0.000000
    0    0    5   12   49   -0.000021   -0.000000
    0    0    5   13   49   -0.000042    0.000000
    0    0    5   14   49    0.000003    0.000000
    0    0    5   15   49    0.000020   -0.000000
    0    0    5   16   49   -0.000044   -0.000000
    0    0    5   17   49    0.000001    0.000000
    0    0    5   18   49   -0.000011    0.000000
    0    0    5   19   49   -0.000001   -0.000000
    0    0    5   20   49   -0.000018    0.000000
    0    0    5   21   49    0.000051   -0.000000
    0    0    5   22   49    0.000010   -0.000000
    0    0    5   23   49   -0.000004   -0.000000
    0    0    5   24   49    0.000006   -0.000000
    0    0    5   25   49   -0.000002    0.000000
    0    0    5   26   49    0.000004   -0.000000
    0    0    5   27   49   -0.000018    0.000000
    0    0    5   28   49    0.000034   -0.000000
    0    0    5   29   49   -0.000048    0.000000
    0    0    5   30   49   -0.000045   -0.000000
    0    0    5   31   49   -0.000007    0.000000
    0    0    5   32   49   -0.000077   -0.000000
    0    0    5   33   49    0.000010   -0.000000
    0    0    5   34   49   -0.000016    0.000000
    0    0    5   35   49   -0.000078   -0.000000
    0    0    5   36   49   -0.000087    0.000000
    0    0    5   37   49    0.000123    0.000000
    0    0    5   38   49   -0.000086   -0.000000
    0    0    5   39   49   -0.000066    0.000000
    0    0    5   40   49   -0.000049    0.000000
    0    0    5   41   49    0.000025   -0.000000
    0    0    5   42   49   -0.000014    0.000000
    0    0    5   43   49    0.000051    0.000000
    0    0    5   44   49    0.000028   -0.000000
    0    0    5   45   49    0.000013   -0.000000
    0    0    5   46   49    0.000051    0.000000
    0    0    5   47   49    0.000034   -0.000000
    0    0    5   48   49   -0.000000    0.000000
    0    0    5   49   49    0.000084    0.000000
    0    0    5   50   49    0.000008    0.000000
    0    0    5    1   50    0.000000    0.000000
    0    0    5    2   50    0.000053    0.000000
    0    0    5    3   50    0.000012    0.000000
    0    0    5    4   50    0.000006    0.000000
    0    0    5    5   50    0.000009    0.000000
    0    0    5    6   50    0.000016   -0.000000
    0    0    5    7   50    0.000044   -0.000000
    0    0    5    8   50    0.000046   -0.000000
    0    0    5    9   50   -0.000005   -0.000000
    0    0    5   10   50    0.000005    0.000000
    0    0    5   11   50    0.000002   -0.000000
    0    0    5   12   50    0.000009   -0.000000
    0    0    5   13   50   -0.000011    0.000000
    0    0    5   14   50    0.000005    0.000000
    0    0    5   15   50    0.000012   -0.000000
    0    0    5   16   50    0.000001   -0.000000
    0    0    5   17   50    0.000037    0.000000
    0    0    5   18   50   -0.000023    0.000000
    0    0    5   19   50   -0.000040    0.000000
    0    0    5   20   50    0.000039   -0.000000
    0    0    5   21   50   -0.000020   -0.000000
    0    0    5   22   50    0.000006    0.000000
    0    0    5   23   50    0.000065    0.000000
    0    0    5   24   50   -0.000005   -0.000000
    0    0    5   25   50   -0.000024    0.000000
    0    0    5   26   50   -0.000008   -0.000000
    0    0    5   27   50    0.000016    0.000000
    0    0    5   28   50   -0.000015   -0.000000
    0    0    5   29   50   -0.000002   -0.000000
    0    0    5   30   50   -0.000008    0.000000
    0    0    5   31   50    0.000035    0.000000
    0    0    5   32   50   -0.000066    0.000000
    0    0    5   33   50   -0.000076    0.000000
    0    0    5   34   50   -0.000026    0.000000
    0    0    5   35   50    0.000094    0.000000
    0    0    5   36   50   -0.000076   -0.000000
    0    0    5   37   50   -0.000086   -0.000000
    0    0    5   38   50    0.000067   -0.000000
    0    0    5   39   50   -0.000077   -0.000000
    0    0    5   40   50    0.000087    0.000000
    0    0    5   41   50    0.000020    0.000000
    0    0    5   42   50   -0.000042   -0.000000
    0    0    5   43   50    0.000051    0.000000
    0    0    5   44   50    0.000040    0.000000
    0    0    5   45   50    0.000018   -0.000000
    0    0    5   46   50   -0.000331   -0.000000
    0    0    5   47   50    0.000030    0.000000
    0    0    5   48   50    0.000045   -0.000000
    0    0    5   49   50    0.000008   -0.000000
    0    0    5   50   50    0.000088    0.000000
