 Reading information from file ZnSe.chk :
 written on 24Apr2022 at 20:57:44
Number of bands: 4
Excluded bands: 1,2,3,4,5,6,7,8,9,10,15,16,17,18.
Real lattice: read.
Reciprocal lattice: read.
Num kpts:512
mp_grid: read.
kpt_latt: read.
nntot:8
num_wann:4
checkpoint: postwann
have_disentangled: FALSE
U_matrix: read.
M_matrix: read.
wannier_centres: read.
wannier_spreads: read.
 ... done


 Writing formatted checkpoint file ZnSe.chk.fmt... done

