
             +---------------------------------------------------+
             |                                                   |
             |                   WANNIER90                       |
             |                                                   |
             +---------------------------------------------------+
             |                                                   |
             |        Welcome to the Maximally-Localized         |
             |        Generalized Wannier Functions code         |
             |            http://www.wannier.org                 |
             |                                                   |
             |                                                   |
             |  Wannier90 Developer Group:                       |
             |    Giovanni Pizzi    (EPFL)                       |
             |    Valerio Vitale    (Cambridge)                  |
             |    David Vanderbilt  (Rutgers University)         |
             |    Nicola Marzari    (EPFL)                       |
             |    Ivo Souza         (Universidad del Pais Vasco) |
             |    Arash A. Mostofi  (Imperial College London)    |
             |    Jonathan R. Yates (University of Oxford)       |
             |                                                   |
             |  For the full list of Wannier90 3.x authors,      |
             |  please check the code documentation and the      |
             |  README on the GitHub page of the code            |
             |                                                   |
             |                                                   |
             |  Please cite                                      |
             |                                                   |
             |  [ref] "Wannier90 as a community code:            |
             |        new features and applications",            |
             |        G. Pizzi et al., J. Phys. Cond. Matt. 32,  |
             |        165902 (2020).                             |
             |        http://doi.org/10.1088/1361-648X/ab51ff    |
             |                                                   |
             |  in any publications arising from the use of      |
             |  this code. For the method please cite            |
             |                                                   |
             |  [ref] "Maximally Localized Generalised Wannier   |
             |         Functions for Composite Energy Bands"     |
             |         N. Marzari and D. Vanderbilt              |
             |         Phys. Rev. B 56 12847 (1997)              |
             |                                                   |
             |  [ref] "Maximally Localized Wannier Functions     |
             |         for Entangled Energy Bands"               |
             |         I. Souza, N. Marzari and D. Vanderbilt    |
             |         Phys. Rev. B 65 035109 (2001)             |
             |                                                   |
             |                                                   |
             | Copyright (c) 1996-2020                           |
             |        The Wannier90 Developer Group and          |
             |        individual contributors                    |
             |                                                   |
             |      Release: 3.1.0        5th March    2020      |
             |                                                   |
             | This program is free software; you can            |
             | redistribute it and/or modify it under the terms  |
             | of the GNU General Public License as published by |
             | the Free Software Foundation; either version 2 of |
             | the License, or (at your option) any later version|
             |                                                   |
             | This program is distributed in the hope that it   |
             | will be useful, but WITHOUT ANY WARRANTY; without |
             | even the implied warranty of MERCHANTABILITY or   |
             | FITNESS FOR A PARTICULAR PURPOSE. See the GNU     |
             | General Public License for more details.          |
             |                                                   |
             | You should have received a copy of the GNU General|
             | Public License along with this program; if not,   |
             | write to the Free Software Foundation, Inc.,      |
             | 675 Mass Ave, Cambridge, MA 02139, USA.           |
             |                                                   |
             +---------------------------------------------------+
             |    Execution started on 24Apr2022 at 20:57:40     |
             +---------------------------------------------------+
 
 ******************************************************************************
 * -> Using CODATA 2006 constant values                                       *
 *    (http://physics.nist.gov/cuu/Constants/index.html)                      *
 * -> Using Bohr value from CODATA                                            *
 ******************************************************************************
 

 Running in serial (with serial executable)

                                    ------
                                    SYSTEM
                                    ------

                              Lattice Vectors (Ang)
                    a_1     2.003940  -1.156975   3.272423
                    a_2     0.000000   2.313950   3.272423
                    a_3    -2.003940  -1.156975   3.272423

                   Unit Cell Volume:      45.52285  (Ang^3)

                        Reciprocal-Space Vectors (Ang^-1)
                    b_1     1.567708  -0.905117   0.640014
                    b_2     0.000000   1.810234   0.640014
                    b_3    -1.567708  -0.905117   0.640014
  
 *----------------------------------------------------------------------------*
 |   Site       Fractional Coordinate          Cartesian Coordinate (Ang)     |
 +----------------------------------------------------------------------------+
 | Zn   1   0.00000   0.00000   0.00000   |    0.00000   0.00000   0.00000    |
 | Se   1   0.25000   0.25000   0.25000   |    0.00000   0.00000   2.45432    |
 *----------------------------------------------------------------------------*
                                ------------
                                K-POINT GRID
                                ------------
  
             Grid size =  8 x  8 x  8      Total points =  512
  
  
 *---------------------------------- MAIN ------------------------------------*
 |  Number of Wannier Functions               :                 4             |
 |  Number of Objective Wannier Functions     :                 4             |
 |  Number of input Bloch states              :                 4             |
 |  Output verbosity (1=low, 5=high)          :                 1             |
 |  Timing Level (1=low, 5=high)              :                 1             |
 |  Optimisation (0=memory, 3=speed)          :                 3             |
 |  Length Unit                               :               Ang             |
 |  Post-processing setup (write *.nnkp)      :                 F             |
 |  Using Gamma-only branch of algorithms     :                 F             |
 *----------------------------------------------------------------------------*
 *------------------------------- WANNIERISE ---------------------------------*
 |  Total number of iterations                :               100             |
 |  Number of CG steps before reset           :                 5             |
 |  Trial step length for line search         :             2.000             |
 |  Convergence tolerence                     :         0.100E-09             |
 |  Convergence window                        :                -1             |
 |  Iterations between writing output         :                 1             |
 |  Iterations between backing up to disk     :               100             |
 |  Write r^2_nm to file                      :                 F             |
 |  Write xyz WF centres to file              :                 F             |
 |  Write on-site energies <0n|H|0n> to file  :                 F             |
 |  Use guiding centre to control phases      :                 F             |
 |  Use phases for initial projections        :                 F             |
 *----------------------------------------------------------------------------*
 *-------------------------------- PLOTTING ----------------------------------*
 |  Plotting interpolated bandstructure       :                 T             |
 |   Number of K-path sections                :                 4             |
 |   Divisions along first K-path section     :                40             |
 |   Output format                            :           gnuplot             |
 |   Output mode                              :               s-k             |
 *----------------------------------------------------------------------------*
 |   K-space path sections:                                                   |
 |    From: W       0.250  0.750  0.500     To: L       0.500  0.500  0.500   |
 |    From: L       0.500  0.500  0.500     To: G       0.000  0.000  0.000   |
 |    From: G       0.000  0.000  0.000     To: X       0.000  0.500  0.500   |
 |    From: X       0.000  0.500  0.500     To: W       0.250  0.750  0.500   |
 *----------------------------------------------------------------------------*
 |  Plotting Hamiltonian in WF basis          :                 T             |
 *----------------------------------------------------------------------------*
 Time to read parameters        0.044 (sec)

 *---------------------------------- K-MESH ----------------------------------*
 +----------------------------------------------------------------------------+
 |                    Distance to Nearest-Neighbour Shells                    |
 |                    ------------------------------------                    |
 |          Shell             Distance (Ang^-1)          Multiplicity         |
 |          -----             -----------------          ------------         |
 |             1                   0.240005                      8            |
 |             2                   0.277134                      6            |
 |             3                   0.391927                     12            |
 |             4                   0.459575                     24            |
 |             5                   0.480010                      8            |
 |             6                   0.554268                      6            |
 |             7                   0.604000                     24            |
 |             8                   0.619691                     24            |
 |             9                   0.678837                     24            |
 |            10                   0.720016                     32            |
 |            11                   0.783854                     12            |
 |            12                   0.819774                     48            |
 |            13                   0.831403                     30            |
 |            14                   0.876375                     24            |
 |            15                   0.908645                     24            |
 |            16                   0.919150                     24            |
 |            17                   0.960021                      8            |
 |            18                   0.989567                     48            |
 |            19                   0.999222                     24            |
 |            20                   1.036941                     48            |
 |            21                   1.064354                     72            |
 |            22                   1.108537                      6            |
 |            23                   1.134220                     24            |
 |            24                   1.142653                     48            |
 |            25                   1.175781                     36            |
 |            26                   1.200026                     56            |
 |            27                   1.208000                     24            |
 |            28                   1.239381                     24            |
 |            29                   1.262406                     72            |
 |            30                   1.269988                     48            |
 |            31                   1.299875                     24            |
 |            32                   1.321846                     48            |
 |            33                   1.357675                     24            |
 |            34                   1.378725                     72            |
 |            35                   1.385671                     30            |
 |            36                   1.413112                     64            |
 +----------------------------------------------------------------------------+
 | The b-vectors are chosen automatically                                     |
 | The following shells are used:   1                                         |
 +----------------------------------------------------------------------------+
 |                        Shell   # Nearest-Neighbours                        |
 |                        -----   --------------------                        |
 |                          1               8                                 |
 +----------------------------------------------------------------------------+
 | Completeness relation is fully satisfied [Eq. (B1), PRB 56, 12847 (1997)]  |
 +----------------------------------------------------------------------------+
 |                  b_k Vectors (Ang^-1) and Weights (Ang^2)                  |
 |                  ----------------------------------------                  |
 |            No.         b_k(x)      b_k(y)      b_k(z)        w_b           |
 |            ---        --------------------------------     --------        |
 |             1        -0.195963   -0.113140    0.080002     6.510133        |
 |             2         0.000000    0.226279    0.080002     6.510133        |
 |             3         0.195963   -0.113140    0.080002     6.510133        |
 |             4         0.000000    0.000000    0.240005     6.510133        |
 |             5         0.000000    0.000000   -0.240005     6.510133        |
 |             6         0.195963    0.113140   -0.080002     6.510133        |
 |             7        -0.195963    0.113140   -0.080002     6.510133        |
 |             8         0.000000   -0.226279   -0.080002     6.510133        |
 +----------------------------------------------------------------------------+
 |                           b_k Directions (Ang^-1)                          |
 |                           -----------------------                          |
 |            No.           x           y           z                         |
 |            ---        --------------------------------                     |
 |             1        -0.195963   -0.113140    0.080002                     |
 |             2         0.000000    0.226279    0.080002                     |
 |             3         0.195963   -0.113140    0.080002                     |
 |             4         0.000000    0.000000    0.240005                     |
 +----------------------------------------------------------------------------+
  
 Time to get kmesh              1.400 (sec)
 *============================================================================*
 |                              MEMORY ESTIMATE                               |
 |         Maximum RAM allocated during each phase of the calculation         |
 *============================================================================*
 |                            Wannierise:            3.32 Mb                  |
 |                          plot_wannier:            3.32 Mb                  |
 *----------------------------------------------------------------------------*
  
 Starting a new Wannier90 calculation ...


 Reading overlaps from ZnSe.mmn    :  Created on 23Apr2022 at  0:10:31

 Reading projections from ZnSe.amn :  Created on 23Apr2022 at  0:10:28  with SCDM

 Time to read overlaps          0.100 (sec)

 Writing checkpoint file ZnSe.chk... done


 *------------------------------- WANNIERISE ---------------------------------*
 +--------------------------------------------------------------------+<-- CONV
 | Iter  Delta Spread     RMS Gradient      Spread (Ang^2)      Time  |<-- CONV
 +--------------------------------------------------------------------+<-- CONV

 ------------------------------------------------------------------------------
 Initial State
  WF centre and spread    1  ( -0.112984,  0.032367,  2.404151 )     7.70727090
  WF centre and spread    2  (  0.112996,  0.032360,  2.404156 )     7.70726998
  WF centre and spread    3  (  0.000013,  0.032891,  2.608502 )     7.86628051
  WF centre and spread    4  (  0.000014, -0.201864,  2.422960 )     8.57991492
  Sum of centres and spreads (  0.000039, -0.104246,  9.839769 )    31.86073631

      0     0.319E+02     0.0000000000       31.8607122309       0.00  <-- CONV
        O_D=      1.9958883 O_OD=     10.1888998 O_TOT=     31.8607122 <-- SPRD
 ------------------------------------------------------------------------------
 Cycle:      1
  WF centre and spread    1  ( -0.125995,  0.045667,  2.395479 )     7.38948415
  WF centre and spread    2  (  0.126009,  0.045658,  2.395485 )     7.38949620
  WF centre and spread    3  (  0.000017,  0.040676,  2.631131 )     7.52881468
  WF centre and spread    4  (  0.000017, -0.219969,  2.427408 )     8.26815240
  Sum of centres and spreads (  0.000048, -0.087968,  9.849502 )    30.57594743

      1    -0.128E+01     0.8761252264       30.5759233115       0.02  <-- CONV
        O_D=      1.4336721 O_OD=      9.4663270 O_TOT=     30.5759233 <-- SPRD
 Delta: O_D= -0.5622161E+00 O_OD= -0.7225728E+00 O_TOT= -0.1284789E+01 <-- DLTA
 ------------------------------------------------------------------------------
 Cycle:      2
  WF centre and spread    1  ( -0.138244,  0.054099,  2.387009 )     7.25341578
  WF centre and spread    2  (  0.138258,  0.054090,  2.387015 )     7.25343382
  WF centre and spread    3  (  0.000018,  0.047211,  2.649231 )     7.44295601
  WF centre and spread    4  (  0.000018, -0.249082,  2.419199 )     8.21181443
  Sum of centres and spreads (  0.000050, -0.093683,  9.842454 )    30.16162004

      2    -0.414E+00     0.5647764812       30.1615959621       0.05  <-- CONV
        O_D=      1.3076496 O_OD=      9.1780222 O_TOT=     30.1615960 <-- SPRD
 Delta: O_D= -0.1260226E+00 O_OD= -0.2883048E+00 O_TOT= -0.4143273E+00 <-- DLTA
 ------------------------------------------------------------------------------
 Cycle:      3
  WF centre and spread    1  ( -0.146635,  0.062355,  2.383066 )     7.17196338
  WF centre and spread    2  (  0.146649,  0.062345,  2.383073 )     7.17197355
  WF centre and spread    3  (  0.000018,  0.054230,  2.665279 )     7.40600038
  WF centre and spread    4  (  0.000020, -0.262549,  2.421092 )     8.20243845
  Sum of centres and spreads (  0.000051, -0.083619,  9.852510 )    29.95237576

      3    -0.209E+00     0.3860977571       29.9523516352       0.07  <-- CONV
        O_D=      1.2240183 O_OD=      9.0524091 O_TOT=     29.9523516 <-- SPRD
 Delta: O_D= -0.8363125E-01 O_OD= -0.1256131E+00 O_TOT= -0.2092443E+00 <-- DLTA
 ------------------------------------------------------------------------------
 Cycle:      4
  WF centre and spread    1  ( -0.148811,  0.065839,  2.380383 )     7.12175558
  WF centre and spread    2  (  0.148824,  0.065828,  2.380390 )     7.12174772
  WF centre and spread    3  (  0.000018,  0.058352,  2.669628 )     7.38051834
  WF centre and spread    4  (  0.000020, -0.270779,  2.420664 )     8.23612167
  Sum of centres and spreads (  0.000050, -0.080760,  9.851065 )    29.86014331

      4    -0.922E-01     0.2449956289       29.8601191960       0.10  <-- CONV
        O_D=      1.1955183 O_OD=      8.9886767 O_TOT=     29.8601192 <-- SPRD
 Delta: O_D= -0.2849999E-01 O_OD= -0.6373245E-01 O_TOT= -0.9223244E-01 <-- DLTA
 ------------------------------------------------------------------------------
 Cycle:      5
  WF centre and spread    1  ( -0.148618,  0.068285,  2.380199 )     7.08404635
  WF centre and spread    2  (  0.148628,  0.068274,  2.380206 )     7.08401686
  WF centre and spread    3  (  0.000017,  0.063205,  2.672076 )     7.35678300
  WF centre and spread    4  (  0.000019, -0.272875,  2.421264 )     8.28568230
  Sum of centres and spreads (  0.000046, -0.073110,  9.853746 )    29.81052852

      5    -0.496E-01     0.1713304007       29.8105043886       0.13  <-- CONV
        O_D=      1.1769643 O_OD=      8.9576159 O_TOT=     29.8105044 <-- SPRD
 Delta: O_D= -0.1855400E-01 O_OD= -0.3106080E-01 O_TOT= -0.4961481E-01 <-- DLTA
 ------------------------------------------------------------------------------
 Cycle:      6
  WF centre and spread    1  ( -0.147324,  0.069508,  2.380312 )     7.05347321
  WF centre and spread    2  (  0.147332,  0.069498,  2.380320 )     7.05342666
  WF centre and spread    3  (  0.000015,  0.067278,  2.672304 )     7.33512772
  WF centre and spread    4  (  0.000017, -0.274645,  2.420929 )     8.34270677
  Sum of centres and spreads (  0.000040, -0.068362,  9.853865 )    29.78473435

      6    -0.258E-01     0.1246625856       29.7847102261       0.16  <-- CONV
        O_D=      1.1731941 O_OD=      8.9355920 O_TOT=     29.7847102 <-- SPRD
 Delta: O_D= -0.3770253E-02 O_OD= -0.2202391E-01 O_TOT= -0.2579416E-01 <-- DLTA
 ------------------------------------------------------------------------------
 Cycle:      7
  WF centre and spread    1  ( -0.146639,  0.069851,  2.380556 )     7.04339034
  WF centre and spread    2  (  0.146646,  0.069841,  2.380564 )     7.04334121
  WF centre and spread    3  (  0.000015,  0.068606,  2.672284 )     7.32704290
  WF centre and spread    4  (  0.000016, -0.275380,  2.421029 )     8.36188390
  Sum of centres and spreads (  0.000038, -0.067081,  9.854433 )    29.77565835

      7    -0.908E-02     0.0850488148       29.7756342156       0.19  <-- CONV
        O_D=      1.1727037 O_OD=      8.9270063 O_TOT=     29.7756342 <-- SPRD
 Delta: O_D= -0.4903234E-03 O_OD= -0.8585687E-02 O_TOT= -0.9076011E-02 <-- DLTA
 ------------------------------------------------------------------------------
 Cycle:      8
  WF centre and spread    1  ( -0.144676,  0.070233,  2.381056 )     7.02241361
  WF centre and spread    2  (  0.144681,  0.070225,  2.381063 )     7.02235783
  WF centre and spread    3  (  0.000014,  0.071492,  2.671387 )     7.31176817
  WF centre and spread    4  (  0.000015, -0.277017,  2.420666 )     8.41243904
  Sum of centres and spreads (  0.000034, -0.065067,  9.854171 )    29.76897865

      8    -0.668E-02     0.0569698349       29.7689545236       0.22  <-- CONV
        O_D=      1.1752571 O_OD=      8.9177733 O_TOT=     29.7689545 <-- SPRD
 Delta: O_D=  0.2553338E-02 O_OD= -0.9233030E-02 O_TOT= -0.6679692E-02 <-- DLTA
 ------------------------------------------------------------------------------
 Cycle:      9
  WF centre and spread    1  ( -0.141486,  0.070886,  2.382097 )     6.98945300
  WF centre and spread    2  (  0.141489,  0.070880,  2.382105 )     6.98938780
  WF centre and spread    3  (  0.000011,  0.076187,  2.670237 )     7.28949663
  WF centre and spread    4  (  0.000009, -0.278572,  2.420611 )     8.49511627
  Sum of centres and spreads (  0.000023, -0.060618,  9.855049 )    29.76345371

      9    -0.552E-02     0.0498066448       29.7634295779       0.24  <-- CONV
        O_D=      1.1795275 O_OD=      8.9079779 O_TOT=     29.7634296 <-- SPRD
 Delta: O_D=  0.4270380E-02 O_OD= -0.9795326E-02 O_TOT= -0.5524946E-02 <-- DLTA
 ------------------------------------------------------------------------------
 Cycle:     10
  WF centre and spread    1  ( -0.137254,  0.071711,  2.382947 )     6.94150955
  WF centre and spread    2  (  0.137255,  0.071708,  2.382955 )     6.94142803
  WF centre and spread    3  (  0.000010,  0.082210,  2.668355 )     7.25863038
  WF centre and spread    4  (  0.000012, -0.283338,  2.419505 )     8.61683258
  Sum of centres and spreads (  0.000023, -0.057709,  9.853761 )    29.75840054

     10    -0.505E-02     0.0494111185       29.7583764165       0.27  <-- CONV
        O_D=      1.1881891 O_OD=      8.8942631 O_TOT=     29.7583764 <-- SPRD
 Delta: O_D=  0.8661617E-02 O_OD= -0.1371478E-01 O_TOT= -0.5053161E-02 <-- DLTA
 ------------------------------------------------------------------------------
 Cycle:     11
  WF centre and spread    1  ( -0.132869,  0.073134,  2.384066 )     6.88662238
  WF centre and spread    2  (  0.132864,  0.073133,  2.384074 )     6.88653383
  WF centre and spread    3  (  0.000006,  0.089359,  2.667380 )     7.22310678
  WF centre and spread    4  ( -0.000005, -0.286011,  2.420947 )     8.75817805
  Sum of centres and spreads ( -0.000003, -0.050384,  9.856467 )    29.75444103

     11    -0.396E-02     0.0707338787       29.7544169041       0.29  <-- CONV
        O_D=      1.1995668 O_OD=      8.8789259 O_TOT=     29.7544169 <-- SPRD
 Delta: O_D=  0.1137769E-01 O_OD= -0.1533721E-01 O_TOT= -0.3959512E-02 <-- DLTA
 ------------------------------------------------------------------------------
 Cycle:     12
  WF centre and spread    1  ( -0.123832,  0.075668,  2.385667 )     6.76316184
  WF centre and spread    2  (  0.123822,  0.075674,  2.385677 )     6.76304586
  WF centre and spread    3  (  0.000002,  0.104642,  2.665422 )     7.14268669
  WF centre and spread    4  ( -0.000013, -0.300646,  2.420110 )     9.07877980
  Sum of centres and spreads ( -0.000021, -0.044662,  9.856876 )    29.74767419

     12    -0.677E-02     0.0856611352       29.7476500773       0.31  <-- CONV
        O_D=      1.2293431 O_OD=      8.8423828 O_TOT=     29.7476501 <-- SPRD
 Delta: O_D=  0.2977630E-01 O_OD= -0.3654313E-01 O_TOT= -0.6766827E-02 <-- DLTA
 ------------------------------------------------------------------------------
 Cycle:     13
  WF centre and spread    1  ( -0.123971,  0.075654,  2.385563 )     6.76081038
  WF centre and spread    2  (  0.123962,  0.075661,  2.385573 )     6.76069431
  WF centre and spread    3  (  0.000003,  0.104870,  2.665691 )     7.14110587
  WF centre and spread    4  ( -0.000005, -0.304196,  2.420613 )     9.07985790
  Sum of centres and spreads ( -0.000010, -0.048011,  9.857439 )    29.74246847

     13    -0.521E-02     0.0887359525       29.7424443487       0.33  <-- CONV
        O_D=      1.2231006 O_OD=      8.8434196 O_TOT=     29.7424443 <-- SPRD
 Delta: O_D= -0.6242477E-02 O_OD=  0.1036749E-02 O_TOT= -0.5205729E-02 <-- DLTA
 ------------------------------------------------------------------------------
 Cycle:     14
  WF centre and spread    1  ( -0.124053,  0.075983,  2.385616 )     6.75566730
  WF centre and spread    2  (  0.124043,  0.075989,  2.385627 )     6.75555891
  WF centre and spread    3  (  0.000003,  0.105553,  2.666242 )     7.13712735
  WF centre and spread    4  ( -0.000016, -0.303615,  2.422262 )     9.08965722
  Sum of centres and spreads ( -0.000023, -0.046091,  9.859746 )    29.73801078

     14    -0.446E-02     0.1017749968       29.7379866521       0.36  <-- CONV
        O_D=      1.2209690 O_OD=      8.8410935 O_TOT=     29.7379867 <-- SPRD
 Delta: O_D= -0.2131585E-02 O_OD= -0.2326112E-02 O_TOT= -0.4457697E-02 <-- DLTA
 ------------------------------------------------------------------------------
 Cycle:     15
  WF centre and spread    1  ( -0.123936,  0.076309,  2.385381 )     6.74150675
  WF centre and spread    2  (  0.123927,  0.076315,  2.385392 )     6.74140430
  WF centre and spread    3  (  0.000004,  0.106698,  2.666442 )     7.12714736
  WF centre and spread    4  ( -0.000013, -0.308785,  2.419617 )     9.12224149
  Sum of centres and spreads ( -0.000019, -0.049463,  9.856832 )    29.73229990

     15    -0.571E-02     0.0842177622       29.7322757909       0.38  <-- CONV
        O_D=      1.2240345 O_OD=      8.8323171 O_TOT=     29.7322758 <-- SPRD
 Delta: O_D=  0.3065456E-02 O_OD= -0.8776317E-02 O_TOT= -0.5710861E-02 <-- DLTA
 ------------------------------------------------------------------------------
 Cycle:     16
  WF centre and spread    1  ( -0.123419,  0.076664,  2.385544 )     6.72664883
  WF centre and spread    2  (  0.123412,  0.076670,  2.385556 )     6.72654990
  WF centre and spread    3  (  0.000005,  0.107979,  2.666489 )     7.11596321
  WF centre and spread    4  ( -0.000004, -0.309485,  2.420431 )     9.15968348
  Sum of centres and spreads ( -0.000006, -0.048172,  9.858021 )    29.72884542

     16    -0.345E-02     0.0655364969       29.7288213053       0.40  <-- CONV
        O_D=      1.2278790 O_OD=      8.8250181 O_TOT=     29.7288213 <-- SPRD
 Delta: O_D=  0.3844524E-02 O_OD= -0.7299010E-02 O_TOT= -0.3454486E-02 <-- DLTA
 ------------------------------------------------------------------------------
 Cycle:     17
  WF centre and spread    1  ( -0.122372,  0.076707,  2.385668 )     6.70445687
  WF centre and spread    2  (  0.122364,  0.076713,  2.385682 )     6.70437354
  WF centre and spread    3  (  0.000005,  0.109577,  2.665867 )     7.10004642
  WF centre and spread    4  ( -0.000019, -0.315847,  2.419371 )     9.21544988
  Sum of centres and spreads ( -0.000022, -0.052850,  9.856587 )    29.72432671

     17    -0.452E-02     0.0940840454       29.7243026065       0.42  <-- CONV
        O_D=      1.2311882 O_OD=      8.8171902 O_TOT=     29.7243026 <-- SPRD
 Delta: O_D=  0.3309251E-02 O_OD= -0.7827950E-02 O_TOT= -0.4518699E-02 <-- DLTA
 ------------------------------------------------------------------------------
 Cycle:     18
  WF centre and spread    1  ( -0.119236,  0.076567,  2.386747 )     6.65674930
  WF centre and spread    2  (  0.119234,  0.076575,  2.386764 )     6.65666932
  WF centre and spread    3  (  0.000012,  0.113133,  2.663984 )     7.06527013
  WF centre and spread    4  (  0.000018, -0.321462,  2.420848 )     9.33882460
  Sum of centres and spreads (  0.000028, -0.055188,  9.858343 )    29.71751336

     18    -0.681E-02     0.0646859625       29.7174892472       0.45  <-- CONV
        O_D=      1.2433013 O_OD=      8.7982637 O_TOT=     29.7174892 <-- SPRD
 Delta: O_D=  0.1211311E-01 O_OD= -0.1892647E-01 O_TOT= -0.6813359E-02 <-- DLTA
 ------------------------------------------------------------------------------
 Cycle:     19
  WF centre and spread    1  ( -0.119022,  0.076391,  2.386705 )     6.65438513
  WF centre and spread    2  (  0.119014,  0.076398,  2.386723 )     6.65431897
  WF centre and spread    3  (  0.000008,  0.113127,  2.663596 )     7.06361654
  WF centre and spread    4  ( -0.000026, -0.323730,  2.419003 )     9.34246394
  Sum of centres and spreads ( -0.000025, -0.057813,  9.856027 )    29.71478458

     19    -0.273E-02     0.1158223483       29.7147604826       0.47  <-- CONV
        O_D=      1.2433165 O_OD=      8.7955198 O_TOT=     29.7147605 <-- SPRD
 Delta: O_D=  0.1512724E-04 O_OD= -0.2743892E-02 O_TOT= -0.2728765E-02 <-- DLTA
 ------------------------------------------------------------------------------
 Cycle:     20
  WF centre and spread    1  ( -0.117940,  0.076264,  2.387176 )     6.64313139
  WF centre and spread    2  (  0.117934,  0.076272,  2.387195 )     6.64306143
  WF centre and spread    3  (  0.000010,  0.113848,  2.662710 )     7.05497842
  WF centre and spread    4  ( -0.000011, -0.322389,  2.417660 )     9.37043919
  Sum of centres and spreads ( -0.000006, -0.056005,  9.854741 )    29.71161042

     20    -0.317E-02     0.0682602141       29.7115863343       0.49  <-- CONV
        O_D=      1.2517968 O_OD=      8.7838654 O_TOT=     29.7115863 <-- SPRD
 Delta: O_D=  0.8480293E-02 O_OD= -0.1165444E-01 O_TOT= -0.3174148E-02 <-- DLTA
 ------------------------------------------------------------------------------
 Cycle:     21
  WF centre and spread    1  ( -0.115765,  0.075573,  2.388195 )     6.62592468
  WF centre and spread    2  (  0.115760,  0.075582,  2.388216 )     6.62585403
  WF centre and spread    3  (  0.000012,  0.114988,  2.660992 )     7.04191011
  WF centre and spread    4  ( -0.000009, -0.324355,  2.418901 )     9.41379952
  Sum of centres and spreads ( -0.000002, -0.058211,  9.856304 )    29.70748836

     21    -0.412E-02     0.0739448329       29.7074642594       0.51  <-- CONV
        O_D=      1.2551301 O_OD=      8.7764100 O_TOT=     29.7074643 <-- SPRD
 Delta: O_D=  0.3333322E-02 O_OD= -0.7455397E-02 O_TOT= -0.4122075E-02 <-- DLTA
 ------------------------------------------------------------------------------
 Cycle:     22
  WF centre and spread    1  ( -0.114871,  0.075454,  2.388664 )     6.61765093
  WF centre and spread    2  (  0.114865,  0.075464,  2.388686 )     6.61758364
  WF centre and spread    3  (  0.000012,  0.115652,  2.660481 )     7.03539459
  WF centre and spread    4  ( -0.000022, -0.322983,  2.420352 )     9.43541520
  Sum of centres and spreads ( -0.000016, -0.056412,  9.858184 )    29.70604436

     22    -0.144E-02     0.0779829824       29.7060202581       0.53  <-- CONV
        O_D=      1.2577681 O_OD=      8.7723280 O_TOT=     29.7060203 <-- SPRD
 Delta: O_D=  0.2637973E-02 O_OD= -0.4081974E-02 O_TOT= -0.1444001E-02 <-- DLTA
 ------------------------------------------------------------------------------
 Cycle:     23
  WF centre and spread    1  ( -0.109139,  0.074202,  2.390899 )     6.56036693
  WF centre and spread    2  (  0.109137,  0.074215,  2.390928 )     6.56029269
  WF centre and spread    3  (  0.000021,  0.119566,  2.656501 )     6.99093583
  WF centre and spread    4  (  0.000017, -0.329965,  2.420442 )     9.58689056
  Sum of centres and spreads (  0.000037, -0.061982,  9.858770 )    29.69848601

     23    -0.756E-02     0.0891168773       29.6984619045       0.55  <-- CONV
        O_D=      1.2787483 O_OD=      8.7437895 O_TOT=     29.6984619 <-- SPRD
 Delta: O_D=  0.2098020E-01 O_OD= -0.2853855E-01 O_TOT= -0.7558354E-02 <-- DLTA
 ------------------------------------------------------------------------------
 Cycle:     24
  WF centre and spread    1  ( -0.108237,  0.074093,  2.391245 )     6.55068788
  WF centre and spread    2  (  0.108231,  0.074106,  2.391276 )     6.55062627
  WF centre and spread    3  (  0.000020,  0.120310,  2.655925 )     6.98341159
  WF centre and spread    4  ( -0.000057, -0.329612,  2.420532 )     9.61280586
  Sum of centres and spreads ( -0.000043, -0.061103,  9.858978 )    29.69753161

     24    -0.954E-03     0.1312628027       29.6975075074       0.57  <-- CONV
        O_D=      1.2828257 O_OD=      8.7387576 O_TOT=     29.6975075 <-- SPRD
 Delta: O_D=  0.4077432E-02 O_OD= -0.5031829E-02 O_TOT= -0.9543971E-03 <-- DLTA
 ------------------------------------------------------------------------------
 Cycle:     25
  WF centre and spread    1  ( -0.108227,  0.074108,  2.391219 )     6.55005766
  WF centre and spread    2  (  0.108225,  0.074121,  2.391250 )     6.54998133
  WF centre and spread    3  (  0.000022,  0.120363,  2.655917 )     6.98289210
  WF centre and spread    4  (  0.000018, -0.330069,  2.420267 )     9.61374230
  Sum of centres and spreads (  0.000038, -0.061477,  9.858652 )    29.69667339

     25    -0.858E-03     0.1235724176       29.6966492922       0.60  <-- CONV
        O_D=      1.2824813 O_OD=      8.7382437 O_TOT=     29.6966493 <-- SPRD
 Delta: O_D= -0.3443399E-03 O_OD= -0.5138752E-03 O_TOT= -0.8582151E-03 <-- DLTA
 ------------------------------------------------------------------------------
 Cycle:     26
  WF centre and spread    1  ( -0.108145,  0.074413,  2.391078 )     6.54340957
  WF centre and spread    2  (  0.108136,  0.074425,  2.391108 )     6.54334518
  WF centre and spread    3  (  0.000019,  0.121048,  2.656022 )     6.97742197
  WF centre and spread    4  ( -0.000078, -0.328754,  2.419008 )     9.62935311
  Sum of centres and spreads ( -0.000067, -0.058868,  9.857215 )    29.69352982

     26    -0.314E-02     0.0977374563       29.6935057312       0.62  <-- CONV
        O_D=      1.2849309 O_OD=      8.7326506 O_TOT=     29.6935057 <-- SPRD
 Delta: O_D=  0.2449547E-02 O_OD= -0.5593108E-02 O_TOT= -0.3143561E-02 <-- DLTA
 ------------------------------------------------------------------------------
 Cycle:     27
  WF centre and spread    1  ( -0.108026,  0.074601,  2.391011 )     6.53610815
  WF centre and spread    2  (  0.108040,  0.074616,  2.391041 )     6.53596711
  WF centre and spread    3  (  0.000035,  0.121754,  2.656293 )     6.97151151
  WF centre and spread    4  (  0.000369, -0.330012,  2.418665 )     9.64749478
  Sum of centres and spreads (  0.000417, -0.059041,  9.857008 )    29.69108155

     27    -0.245E-02     0.1015907801       29.6910574630       0.64  <-- CONV
        O_D=      1.2871127 O_OD=      8.7280205 O_TOT=     29.6910575 <-- SPRD
 Delta: O_D=  0.2181840E-02 O_OD= -0.4630108E-02 O_TOT= -0.2448268E-02 <-- DLTA
 ------------------------------------------------------------------------------
 Cycle:     28
  WF centre and spread    1  ( -0.107993,  0.074642,  2.390996 )     6.53296891
  WF centre and spread    2  (  0.107963,  0.074649,  2.391029 )     6.53297119
  WF centre and spread    3  (  0.000008,  0.122041,  2.656429 )     6.96908013
  WF centre and spread    4  ( -0.000554, -0.331645,  2.418855 )     9.65507064
  Sum of centres and spreads ( -0.000576, -0.060313,  9.857309 )    29.69009087

     28    -0.991E-03     0.1366502581       29.6900667772       0.66  <-- CONV
        O_D=      1.2873382 O_OD=      8.7268044 O_TOT=     29.6900668 <-- SPRD
 Delta: O_D=  0.2254413E-03 O_OD= -0.1216127E-02 O_TOT= -0.9906858E-03 <-- DLTA
 ------------------------------------------------------------------------------
 Cycle:     29
  WF centre and spread    1  ( -0.107786,  0.074721,  2.391029 )     6.52442399
  WF centre and spread    2  (  0.107799,  0.074733,  2.391061 )     6.52428037
  WF centre and spread    3  (  0.000039,  0.122887,  2.656893 )     6.96225655
  WF centre and spread    4  (  0.000315, -0.335662,  2.420423 )     9.67619615
  Sum of centres and spreads (  0.000367, -0.063321,  9.859407 )    29.68715706

     29    -0.293E-02     0.1419680355       29.6871329590       0.68  <-- CONV
        O_D=      1.2865026 O_OD=      8.7247062 O_TOT=     29.6871330 <-- SPRD
 Delta: O_D= -0.8355672E-03 O_OD= -0.2098251E-02 O_TOT= -0.2933818E-02 <-- DLTA
 ------------------------------------------------------------------------------
 Cycle:     30
  WF centre and spread    1  ( -0.107746,  0.074755,  2.391036 )     6.52261386
  WF centre and spread    2  (  0.107715,  0.074760,  2.391071 )     6.52261978
  WF centre and spread    3  (  0.000011,  0.123061,  2.656939 )     6.96088236
  WF centre and spread    4  ( -0.000677, -0.335917,  2.420671 )     9.68067123
  Sum of centres and spreads ( -0.000699, -0.063341,  9.859717 )    29.68678723

     30    -0.370E-03     0.0734108767       29.6867631299       0.70  <-- CONV
        O_D=      1.2865965 O_OD=      8.7242424 O_TOT=     29.6867631 <-- SPRD
 Delta: O_D=  0.9388142E-04 O_OD= -0.4637104E-03 O_TOT= -0.3698290E-03 <-- DLTA
 ------------------------------------------------------------------------------
 Cycle:     31
  WF centre and spread    1  ( -0.107708,  0.074758,  2.391036 )     6.52235652
  WF centre and spread    2  (  0.107716,  0.074770,  2.391069 )     6.52222568
  WF centre and spread    3  (  0.000036,  0.123089,  2.656926 )     6.96063053
  WF centre and spread    4  (  0.000224, -0.335901,  2.420604 )     9.68124982
  Sum of centres and spreads (  0.000268, -0.063285,  9.859635 )    29.68646255

     31    -0.325E-03     0.1023017209       29.6864384488       0.72  <-- CONV
        O_D=      1.2864537 O_OD=      8.7240605 O_TOT=     29.6864384 <-- SPRD
 Delta: O_D= -0.1427728E-03 O_OD= -0.1819083E-03 O_TOT= -0.3246811E-03 <-- DLTA
 ------------------------------------------------------------------------------
 Cycle:     32
  WF centre and spread    1  ( -0.107482,  0.074819,  2.391025 )     6.51849547
  WF centre and spread    2  (  0.107496,  0.074833,  2.391057 )     6.51834087
  WF centre and spread    3  (  0.000039,  0.123414,  2.656774 )     6.95764012
  WF centre and spread    4  (  0.000337, -0.336503,  2.420009 )     9.69086556
  Sum of centres and spreads (  0.000390, -0.063437,  9.858866 )    29.68534203

     32    -0.112E-02     0.0690808002       29.6853179310       0.75  <-- CONV
        O_D=      1.2872881 O_OD=      8.7221056 O_TOT=     29.6853179 <-- SPRD
 Delta: O_D=  0.8343776E-03 O_OD= -0.1954895E-02 O_TOT= -0.1120518E-02 <-- DLTA
 ------------------------------------------------------------------------------
 Cycle:     33
  WF centre and spread    1  ( -0.107478,  0.074846,  2.391044 )     6.51817559
  WF centre and spread    2  (  0.107475,  0.074857,  2.391077 )     6.51807490
  WF centre and spread    3  (  0.000029,  0.123456,  2.656795 )     6.95740552
  WF centre and spread    4  (  0.000013, -0.335487,  2.420064 )     9.69099353
  Sum of centres and spreads (  0.000039, -0.062329,  9.858980 )    29.68464954

     33    -0.692E-03     0.1757955030       29.6846254377       0.77  <-- CONV
        O_D=      1.2869850 O_OD=      8.7217162 O_TOT=     29.6846254 <-- SPRD
 Delta: O_D= -0.3030962E-03 O_OD= -0.3893972E-03 O_TOT= -0.6924933E-03 <-- DLTA
 ------------------------------------------------------------------------------
 Cycle:     34
  WF centre and spread    1  ( -0.107424,  0.074838,  2.391062 )     6.51706456
  WF centre and spread    2  (  0.107402,  0.074845,  2.391097 )     6.51703962
  WF centre and spread    3  (  0.000017,  0.123527,  2.656773 )     6.95653322
  WF centre and spread    4  ( -0.000512, -0.336060,  2.420067 )     9.69373503
  Sum of centres and spreads ( -0.000518, -0.062850,  9.859000 )    29.68437242

     34    -0.277E-03     0.0533013166       29.6843483222       0.79  <-- CONV
        O_D=      1.2873057 O_OD=      8.7211184 O_TOT=     29.6843483 <-- SPRD
 Delta: O_D=  0.3206967E-03 O_OD= -0.5978122E-03 O_TOT= -0.2771155E-03 <-- DLTA
 ------------------------------------------------------------------------------
 Cycle:     35
  WF centre and spread    1  ( -0.107282,  0.074828,  2.391107 )     6.51492474
  WF centre and spread    2  (  0.107284,  0.074841,  2.391141 )     6.51482413
  WF centre and spread    3  (  0.000033,  0.123683,  2.656737 )     6.95476646
  WF centre and spread    4  (  0.000057, -0.336665,  2.420110 )     9.69946560
  Sum of centres and spreads (  0.000093, -0.063313,  9.859095 )    29.68398094

     35    -0.391E-03     0.0889439744       29.6839568383       0.81  <-- CONV
        O_D=      1.2880915 O_OD=      8.7199411 O_TOT=     29.6839568 <-- SPRD
 Delta: O_D=  0.7858121E-03 O_OD= -0.1177296E-02 O_TOT= -0.3914838E-03 <-- DLTA
 ------------------------------------------------------------------------------
 Cycle:     36
  WF centre and spread    1  ( -0.106431,  0.074803,  2.391382 )     6.50178087
  WF centre and spread    2  (  0.106461,  0.074824,  2.391417 )     6.50159690
  WF centre and spread    3  (  0.000052,  0.124718,  2.656485 )     6.94414510
  WF centre and spread    4  (  0.000709, -0.340111,  2.421929 )     9.73492627
  Sum of centres and spreads (  0.000792, -0.065766,  9.861213 )    29.68244913

     36    -0.153E-02     0.0778343694       29.6824250264       0.83  <-- CONV
        O_D=      1.2917555 O_OD=      8.7147453 O_TOT=     29.6824250 <-- SPRD
 Delta: O_D=  0.3664023E-02 O_OD= -0.5195835E-02 O_TOT= -0.1531812E-02 <-- DLTA
 ------------------------------------------------------------------------------
 Cycle:     37
  WF centre and spread    1  ( -0.106436,  0.074831,  2.391389 )     6.50151629
  WF centre and spread    2  (  0.106438,  0.074846,  2.391426 )     6.50141392
  WF centre and spread    3  (  0.000035,  0.124753,  2.656490 )     6.94399309
  WF centre and spread    4  (  0.000018, -0.339165,  2.421810 )     9.73447771
  Sum of centres and spreads (  0.000056, -0.064735,  9.861115 )    29.68140101

     37    -0.105E-02     0.2675348544       29.6813769095       0.86  <-- CONV
        O_D=      1.2910709 O_OD=      8.7143818 O_TOT=     29.6813769 <-- SPRD
 Delta: O_D= -0.6845807E-03 O_OD= -0.3635363E-03 O_TOT= -0.1048117E-02 <-- DLTA
 ------------------------------------------------------------------------------
 Cycle:     38
  WF centre and spread    1  ( -0.106391,  0.074867,  2.391374 )     6.50040639
  WF centre and spread    2  (  0.106368,  0.074877,  2.391412 )     6.50036342
  WF centre and spread    3  (  0.000020,  0.124849,  2.656427 )     6.94321960
  WF centre and spread    4  ( -0.000602, -0.338863,  2.421153 )     9.73699989
  Sum of centres and spreads ( -0.000605, -0.064269,  9.860366 )    29.68098931

     38    -0.412E-03     0.0752428580       29.6809652058       0.88  <-- CONV
        O_D=      1.2917071 O_OD=      8.7133339 O_TOT=     29.6809652 <-- SPRD
 Delta: O_D=  0.6361154E-03 O_OD= -0.1047819E-02 O_TOT= -0.4117037E-03 <-- DLTA
 ------------------------------------------------------------------------------
 Cycle:     39
  WF centre and spread    1  ( -0.106374,  0.074866,  2.391374 )     6.50032546
  WF centre and spread    2  (  0.106371,  0.074880,  2.391410 )     6.50021814
  WF centre and spread    3  (  0.000032,  0.124859,  2.656420 )     6.94313370
  WF centre and spread    4  (  0.000008, -0.338943,  2.421133 )     9.73706386
  Sum of centres and spreads (  0.000037, -0.064339,  9.860337 )    29.68074115

     39    -0.248E-03     0.1456148450       29.6807170506       0.90  <-- CONV
        O_D=      1.2915122 O_OD=      8.7132807 O_TOT=     29.6807171 <-- SPRD
 Delta: O_D= -0.1948909E-03 O_OD= -0.5326424E-04 O_TOT= -0.2481552E-03 <-- DLTA
 ------------------------------------------------------------------------------
 Cycle:     40
  WF centre and spread    1  ( -0.106294,  0.074889,  2.391376 )     6.49910541
  WF centre and spread    2  (  0.106301,  0.074905,  2.391413 )     6.49898341
  WF centre and spread    3  (  0.000038,  0.124967,  2.656364 )     6.94218415
  WF centre and spread    4  (  0.000192, -0.338731,  2.420847 )     9.74022564
  Sum of centres and spreads (  0.000238, -0.063970,  9.860000 )    29.68049861

     40    -0.243E-03     0.0507978705       29.6804745136       0.92  <-- CONV
        O_D=      1.2920504 O_OD=      8.7125000 O_TOT=     29.6804745 <-- SPRD
 Delta: O_D=  0.5381857E-03 O_OD= -0.7807227E-03 O_TOT= -0.2425370E-03 <-- DLTA
 ------------------------------------------------------------------------------
 Cycle:     41
  WF centre and spread    1  ( -0.106290,  0.074890,  2.391378 )     6.49898543
  WF centre and spread    2  (  0.106291,  0.074905,  2.391414 )     6.49888318
  WF centre and spread    3  (  0.000034,  0.124976,  2.656360 )     6.94209666
  WF centre and spread    4  (  0.000040, -0.338781,  2.420861 )     9.74034137
  Sum of centres and spreads (  0.000074, -0.064009,  9.860013 )    29.68030665

     41    -0.192E-03     0.1311266637       29.6802825542       0.94  <-- CONV
        O_D=      1.2919205 O_OD=      8.7124379 O_TOT=     29.6802826 <-- SPRD
 Delta: O_D= -0.1298734E-03 O_OD= -0.6208602E-04 O_TOT= -0.1919594E-03 <-- DLTA
 ------------------------------------------------------------------------------
 Cycle:     42
  WF centre and spread    1  ( -0.106274,  0.074900,  2.391384 )     6.49860244
  WF centre and spread    2  (  0.106264,  0.074912,  2.391422 )     6.49853303
  WF centre and spread    3  (  0.000027,  0.125009,  2.656352 )     6.94180568
  WF centre and spread    4  ( -0.000301, -0.338489,  2.420789 )     9.74130036
  Sum of centres and spreads ( -0.000284, -0.063667,  9.859947 )    29.68024151

     42    -0.651E-04     0.0473794449       29.6802174109       0.97  <-- CONV
        O_D=      1.2921312 O_OD=      8.7121621 O_TOT=     29.6802174 <-- SPRD
 Delta: O_D=  0.2106681E-03 O_OD= -0.2758115E-03 O_TOT= -0.6514336E-04 <-- DLTA
 ------------------------------------------------------------------------------
 Cycle:     43
  WF centre and spread    1  ( -0.105782,  0.074955,  2.391486 )     6.49071130
  WF centre and spread    2  (  0.105768,  0.074967,  2.391521 )     6.49054956
  WF centre and spread    3  (  0.000025,  0.125646,  2.656079 )     6.93548858
  WF centre and spread    4  (  0.000438, -0.338843,  2.419734 )     9.76285829
  Sum of centres and spreads (  0.000449, -0.063275,  9.858820 )    29.67960773

     43    -0.634E-03     0.0682320480       29.6795836349       0.99  <-- CONV
        O_D=      1.2962005 O_OD=      8.7074590 O_TOT=     29.6795836 <-- SPRD
 Delta: O_D=  0.4069305E-02 O_OD= -0.4703081E-02 O_TOT= -0.6337760E-03 <-- DLTA
 ------------------------------------------------------------------------------
 Cycle:     44
  WF centre and spread    1  ( -0.105785,  0.074950,  2.391486 )     6.49069095
  WF centre and spread    2  (  0.105761,  0.074961,  2.391522 )     6.49057935
  WF centre and spread    3  (  0.000019,  0.125644,  2.656077 )     6.93548681
  WF centre and spread    4  ( -0.000265, -0.339225,  2.419904 )     9.76239604
  Sum of centres and spreads ( -0.000271, -0.063671,  9.858989 )    29.67915315

     44    -0.455E-03     0.3142715531       29.6791290557       1.01  <-- CONV
        O_D=      1.2956578 O_OD=      8.7075470 O_TOT=     29.6791291 <-- SPRD
 Delta: O_D= -0.5426200E-03 O_OD=  0.8804077E-04 O_TOT= -0.4545792E-03 <-- DLTA
 ------------------------------------------------------------------------------
 Cycle:     45
  WF centre and spread    1  ( -0.105753,  0.074942,  2.391507 )     6.49045638
  WF centre and spread    2  (  0.105749,  0.074955,  2.391545 )     6.49035914
  WF centre and spread    3  (  0.000033,  0.125668,  2.656086 )     6.93525990
  WF centre and spread    4  ( -0.000093, -0.339021,  2.420269 )     9.76241344
  Sum of centres and spreads ( -0.000064, -0.063455,  9.859407 )    29.67848886

     45    -0.664E-03     0.1372294363       29.6784647639       1.03  <-- CONV
        O_D=      1.2948817 O_OD=      8.7076589 O_TOT=     29.6784648 <-- SPRD
 Delta: O_D= -0.7761512E-03 O_OD=  0.1118594E-03 O_TOT= -0.6642918E-03 <-- DLTA
 ------------------------------------------------------------------------------
 Cycle:     46
  WF centre and spread    1  ( -0.105745,  0.074937,  2.391511 )     6.49039060
  WF centre and spread    2  (  0.105745,  0.074951,  2.391548 )     6.49029031
  WF centre and spread    3  (  0.000035,  0.125672,  2.656085 )     6.93519548
  WF centre and spread    4  (  0.000009, -0.339238,  2.420378 )     9.76254171
  Sum of centres and spreads (  0.000043, -0.063677,  9.859521 )    29.67841810

     46    -0.708E-04     0.1053957289       29.6783940050       1.06  <-- CONV
        O_D=      1.2947843 O_OD=      8.7076855 O_TOT=     29.6783940 <-- SPRD
 Delta: O_D= -0.9736547E-04 O_OD=  0.2660663E-04 O_TOT= -0.7075884E-04 <-- DLTA
 ------------------------------------------------------------------------------
 Cycle:     47
  WF centre and spread    1  ( -0.105718,  0.074931,  2.391531 )     6.48990809
  WF centre and spread    2  (  0.105708,  0.074942,  2.391569 )     6.48984343
  WF centre and spread    3  (  0.000030,  0.125706,  2.656085 )     6.93478498
  WF centre and spread    4  ( -0.000460, -0.339271,  2.420514 )     9.76378593
  Sum of centres and spreads ( -0.000441, -0.063693,  9.859699 )    29.67832242

     47    -0.957E-04     0.0503887531       29.6782983222       1.08  <-- CONV
        O_D=      1.2948763 O_OD=      8.7074979 O_TOT=     29.6782983 <-- SPRD
 Delta: O_D=  0.9195023E-04 O_OD= -0.1876331E-03 O_TOT= -0.9568282E-04 <-- DLTA
 ------------------------------------------------------------------------------
 Cycle:     48
  WF centre and spread    1  ( -0.105709,  0.074926,  2.391532 )     6.48987758
  WF centre and spread    2  (  0.105709,  0.074940,  2.391570 )     6.48977587
  WF centre and spread    3  (  0.000035,  0.125707,  2.656082 )     6.93474170
  WF centre and spread    4  (  0.000005, -0.339463,  2.420554 )     9.76385194
  Sum of centres and spreads (  0.000040, -0.063889,  9.859738 )    29.67824710

     48    -0.753E-04     0.1084818189       29.6782229986       1.10  <-- CONV
        O_D=      1.2947979 O_OD=      8.7075009 O_TOT=     29.6782230 <-- SPRD
 Delta: O_D= -0.7841815E-04 O_OD=  0.3094533E-05 O_TOT= -0.7532362E-04 <-- DLTA
 ------------------------------------------------------------------------------
 Cycle:     49
  WF centre and spread    1  ( -0.105696,  0.074923,  2.391538 )     6.48967579
  WF centre and spread    2  (  0.105694,  0.074937,  2.391576 )     6.48956989
  WF centre and spread    3  (  0.000035,  0.125721,  2.656078 )     6.93456668
  WF centre and spread    4  ( -0.000007, -0.339560,  2.420580 )     9.76439227
  Sum of centres and spreads (  0.000026, -0.063978,  9.859772 )    29.67820462

     49    -0.425E-04     0.0483293538       29.6781805243       1.12  <-- CONV
        O_D=      1.2948463 O_OD=      8.7074100 O_TOT=     29.6781805 <-- SPRD
 Delta: O_D=  0.4847655E-04 O_OD= -0.9095087E-04 O_TOT= -0.4247432E-04 <-- DLTA
 ------------------------------------------------------------------------------
 Cycle:     50
  WF centre and spread    1  ( -0.105573,  0.074899,  2.391596 )     6.48777355
  WF centre and spread    2  (  0.105560,  0.074912,  2.391633 )     6.48765495
  WF centre and spread    3  (  0.000028,  0.125853,  2.656042 )     6.93292805
  WF centre and spread    4  ( -0.000130, -0.340557,  2.420952 )     9.76957570
  Sum of centres and spreads ( -0.000116, -0.064894,  9.860222 )    29.67793225

     50    -0.272E-03     0.0734362650       29.6779081504       1.14  <-- CONV
        O_D=      1.2954233 O_OD=      8.7065606 O_TOT=     29.6779082 <-- SPRD
 Delta: O_D=  0.5769740E-03 O_OD= -0.8493478E-03 O_TOT= -0.2723738E-03 <-- DLTA
 ------------------------------------------------------------------------------
 Cycle:     51
  WF centre and spread    1  ( -0.105568,  0.074904,  2.391599 )     6.48771168
  WF centre and spread    2  (  0.105558,  0.074917,  2.391636 )     6.48758799
  WF centre and spread    3  (  0.000030,  0.125862,  2.656044 )     6.93287711
  WF centre and spread    4  ( -0.000007, -0.340201,  2.420879 )     9.76965844
  Sum of centres and spreads (  0.000012, -0.064519,  9.860158 )    29.67783522

     51    -0.970E-04     0.1370008051       29.6778111232       1.17  <-- CONV
        O_D=      1.2953999 O_OD=      8.7064871 O_TOT=     29.6778111 <-- SPRD
 Delta: O_D= -0.2345453E-04 O_OD= -0.7357270E-04 O_TOT= -0.9702722E-04 <-- DLTA
 ------------------------------------------------------------------------------
 Cycle:     52
  WF centre and spread    1  ( -0.105537,  0.074908,  2.391608 )     6.48727839
  WF centre and spread    2  (  0.105531,  0.074921,  2.391646 )     6.48718854
  WF centre and spread    3  (  0.000032,  0.125899,  2.656033 )     6.93252941
  WF centre and spread    4  ( -0.000234, -0.340076,  2.420955 )     9.77065209
  Sum of centres and spreads ( -0.000208, -0.064348,  9.860242 )    29.67764843

     52    -0.187E-03     0.0732891228       29.6776243293       1.19  <-- CONV
        O_D=      1.2953843 O_OD=      8.7063158 O_TOT=     29.6776243 <-- SPRD
 Delta: O_D= -0.1552773E-04 O_OD= -0.1712662E-03 O_TOT= -0.1867939E-03 <-- DLTA
 ------------------------------------------------------------------------------
 Cycle:     53
  WF centre and spread    1  ( -0.105520,  0.074906,  2.391611 )     6.48708884
  WF centre and spread    2  (  0.105521,  0.074921,  2.391649 )     6.48698366
  WF centre and spread    3  (  0.000037,  0.125914,  2.656025 )     6.93236463
  WF centre and spread    4  (  0.000017, -0.340236,  2.421003 )     9.77115976
  Sum of centres and spreads (  0.000056, -0.064495,  9.860287 )    29.67759690

     53    -0.515E-04     0.0751749994       29.6775727965       1.21  <-- CONV
        O_D=      1.2953978 O_OD=      8.7062508 O_TOT=     29.6775728 <-- SPRD
 Delta: O_D=  0.1347134E-04 O_OD= -0.6500418E-04 O_TOT= -0.5153284E-04 <-- DLTA
 ------------------------------------------------------------------------------
 Cycle:     54
  WF centre and spread    1  ( -0.105369,  0.074923,  2.391655 )     6.48473164
  WF centre and spread    2  (  0.105367,  0.074937,  2.391694 )     6.48464200
  WF centre and spread    3  (  0.000035,  0.126106,  2.655957 )     6.93043313
  WF centre and spread    4  ( -0.000279, -0.339825,  2.420817 )     9.77761691
  Sum of centres and spreads ( -0.000247, -0.063859,  9.860123 )    29.67742368

     54    -0.173E-03     0.0450482986       29.6773995840       1.23  <-- CONV
        O_D=      1.2965429 O_OD=      8.7049325 O_TOT=     29.6773996 <-- SPRD
 Delta: O_D=  0.1145132E-02 O_OD= -0.1318344E-02 O_TOT= -0.1732125E-03 <-- DLTA
 ------------------------------------------------------------------------------
 Cycle:     55
  WF centre and spread    1  ( -0.105366,  0.074917,  2.391654 )     6.48473951
  WF centre and spread    2  (  0.105367,  0.074932,  2.391692 )     6.48463381
  WF centre and spread    3  (  0.000037,  0.126103,  2.655952 )     6.93043037
  WF centre and spread    4  (  0.000034, -0.340344,  2.420978 )     9.77729904
  Sum of centres and spreads (  0.000072, -0.064392,  9.860276 )    29.67710273

     55    -0.321E-03     0.3523510250       29.6770786287       1.25  <-- CONV
        O_D=      1.2961632 O_OD=      8.7049912 O_TOT=     29.6770786 <-- SPRD
 Delta: O_D= -0.3797394E-03 O_OD=  0.5878410E-04 O_TOT= -0.3209553E-03 <-- DLTA
 ------------------------------------------------------------------------------
 Cycle:     56
  WF centre and spread    1  ( -0.105360,  0.074917,  2.391657 )     6.48459064
  WF centre and spread    2  (  0.105355,  0.074931,  2.391695 )     6.48450018
  WF centre and spread    3  (  0.000034,  0.126113,  2.655948 )     6.93031408
  WF centre and spread    4  ( -0.000246, -0.340374,  2.420962 )     9.77766469
  Sum of centres and spreads ( -0.000217, -0.064413,  9.860262 )    29.67706959

     56    -0.331E-04     0.0500362372       29.6770454904       1.27  <-- CONV
        O_D=      1.2962186 O_OD=      8.7049027 O_TOT=     29.6770455 <-- SPRD
 Delta: O_D=  0.5537835E-04 O_OD= -0.8851663E-04 O_TOT= -0.3313828E-04 <-- DLTA
 ------------------------------------------------------------------------------
 Cycle:     57
  WF centre and spread    1  ( -0.105312,  0.074916,  2.391673 )     6.48381944
  WF centre and spread    2  (  0.105303,  0.074930,  2.391711 )     6.48371193
  WF centre and spread    3  (  0.000031,  0.126170,  2.655927 )     6.92967182
  WF centre and spread    4  ( -0.000131, -0.340494,  2.420858 )     9.77974346
  Sum of centres and spreads ( -0.000110, -0.064478,  9.860169 )    29.67694665

     57    -0.123E-03     0.0794781466       29.6769225494       1.29  <-- CONV
        O_D=      1.2965786 O_OD=      8.7044197 O_TOT=     29.6769225 <-- SPRD
 Delta: O_D=  0.3600773E-03 O_OD= -0.4830182E-03 O_TOT= -0.1229410E-03 <-- DLTA
 ------------------------------------------------------------------------------
 Cycle:     58
  WF centre and spread    1  ( -0.105285,  0.074913,  2.391681 )     6.48340764
  WF centre and spread    2  (  0.105275,  0.074927,  2.391719 )     6.48328863
  WF centre and spread    3  (  0.000030,  0.126199,  2.655914 )     6.92932486
  WF centre and spread    4  ( -0.000035, -0.340747,  2.420866 )     9.78086915
  Sum of centres and spreads ( -0.000014, -0.064708,  9.860180 )    29.67689028

     58    -0.564E-04     0.1008247252       29.6768661844       1.32  <-- CONV
        O_D=      1.2967400 O_OD=      8.7042020 O_TOT=     29.6768662 <-- SPRD
 Delta: O_D=  0.1613184E-03 O_OD= -0.2176835E-03 O_TOT= -0.5636507E-04 <-- DLTA
 ------------------------------------------------------------------------------
 Cycle:     59
  WF centre and spread    1  ( -0.105181,  0.074906,  2.391713 )     6.48187314
  WF centre and spread    2  (  0.105171,  0.074919,  2.391751 )     6.48175857
  WF centre and spread    3  (  0.000031,  0.126313,  2.655866 )     6.92803865
  WF centre and spread    4  ( -0.000188, -0.341661,  2.421144 )     9.78507929
  Sum of centres and spreads ( -0.000167, -0.065523,  9.860475 )    29.67674965

     59    -0.141E-03     0.0689732118       29.6767255544       1.34  <-- CONV
        O_D=      1.2973028 O_OD=      8.7034986 O_TOT=     29.6767256 <-- SPRD
 Delta: O_D=  0.5628117E-03 O_OD= -0.7034417E-03 O_TOT= -0.1406300E-03 <-- DLTA
 ------------------------------------------------------------------------------
 Cycle:     60
  WF centre and spread    1  ( -0.105178,  0.074911,  2.391716 )     6.48183897
  WF centre and spread    2  (  0.105171,  0.074925,  2.391755 )     6.48171592
  WF centre and spread    3  (  0.000032,  0.126320,  2.655870 )     6.92801109
  WF centre and spread    4  (  0.000064, -0.341049,  2.420948 )     9.78496878
  Sum of centres and spreads (  0.000089, -0.064893,  9.860289 )    29.67653476

     60    -0.215E-03     0.3278295262       29.6765106643       1.36  <-- CONV
        O_D=      1.2971666 O_OD=      8.7034199 O_TOT=     29.6765107 <-- SPRD
 Delta: O_D= -0.1361958E-03 O_OD= -0.7869433E-04 O_TOT= -0.2148901E-03 <-- DLTA
 ------------------------------------------------------------------------------
 Cycle:     61
  WF centre and spread    1  ( -0.105176,  0.074913,  2.391718 )     6.48178107
  WF centre and spread    2  (  0.105167,  0.074927,  2.391757 )     6.48167124
  WF centre and spread    3  (  0.000031,  0.126325,  2.655870 )     6.92796779
  WF centre and spread    4  ( -0.000148, -0.340939,  2.420944 )     9.78507522
  Sum of centres and spreads ( -0.000126, -0.064774,  9.860289 )    29.67649532

     61    -0.394E-04     0.0901992922       29.6764712204       1.38  <-- CONV
        O_D=      1.2971552 O_OD=      8.7033918 O_TOT=     29.6764712 <-- SPRD
 Delta: O_D= -0.1134708E-04 O_OD= -0.2809680E-04 O_TOT= -0.3944387E-04 <-- DLTA
 ------------------------------------------------------------------------------
 Cycle:     62
  WF centre and spread    1  ( -0.105160,  0.074913,  2.391723 )     6.48158081
  WF centre and spread    2  (  0.105154,  0.074928,  2.391762 )     6.48147847
  WF centre and spread    3  (  0.000033,  0.126343,  2.655864 )     6.92779818
  WF centre and spread    4  ( -0.000155, -0.340947,  2.421039 )     9.78556268
  Sum of centres and spreads ( -0.000129, -0.064763,  9.860389 )    29.67642013

     62    -0.752E-04     0.0790271947       29.6763960267       1.40  <-- CONV
        O_D=      1.2971313 O_OD=      8.7033405 O_TOT=     29.6763960 <-- SPRD
 Delta: O_D= -0.2393640E-04 O_OD= -0.5125727E-04 O_TOT= -0.7519367E-04 <-- DLTA
 ------------------------------------------------------------------------------
 Cycle:     63
  WF centre and spread    1  ( -0.105138,  0.074915,  2.391731 )     6.48130511
  WF centre and spread    2  (  0.105136,  0.074929,  2.391769 )     6.48120501
  WF centre and spread    3  (  0.000036,  0.126367,  2.655857 )     6.92756285
  WF centre and spread    4  ( -0.000123, -0.340889,  2.421118 )     9.78626135
  Sum of centres and spreads ( -0.000089, -0.064678,  9.860475 )    29.67633433

     63    -0.858E-04     0.1303943254       29.6763102267       1.43  <-- CONV
        O_D=      1.2971308 O_OD=      8.7032552 O_TOT=     29.6763102 <-- SPRD
 Delta: O_D= -0.4899405E-06 O_OD= -0.8531004E-04 O_TOT= -0.8579998E-04 <-- DLTA
 ------------------------------------------------------------------------------
 Cycle:     64
  WF centre and spread    1  ( -0.105131,  0.074915,  2.391732 )     6.48122653
  WF centre and spread    2  (  0.105132,  0.074930,  2.391771 )     6.48111751
  WF centre and spread    3  (  0.000038,  0.126374,  2.655855 )     6.92749291
  WF centre and spread    4  (  0.000078, -0.340906,  2.421134 )     9.78648431
  Sum of centres and spreads (  0.000117, -0.064688,  9.860492 )    29.67632127

     64    -0.131E-04     0.0574096571       29.6762971726       1.45  <-- CONV
        O_D=      1.2971546 O_OD=      8.7032184 O_TOT=     29.6762972 <-- SPRD
 Delta: O_D=  0.2377865E-04 O_OD= -0.3683274E-04 O_TOT= -0.1305410E-04 <-- DLTA
 ------------------------------------------------------------------------------
 Cycle:     65
  WF centre and spread    1  ( -0.104507,  0.074945,  2.391931 )     6.47184347
  WF centre and spread    2  (  0.104504,  0.074962,  2.391971 )     6.47173263
  WF centre and spread    3  (  0.000036,  0.127119,  2.655581 )     6.91965251
  WF centre and spread    4  ( -0.001660, -0.338770,  2.420044 )     9.82319211
  Sum of centres and spreads ( -0.001627, -0.061744,  9.859527 )    29.68642073

     65     0.101E-01     0.0622613685       29.6863966367       1.47  <-- CONV
        O_D=      1.3121667 O_OD=      8.6983058 O_TOT=     29.6863966 <-- SPRD
 Delta: O_D=  0.1501208E-01 O_OD= -0.4912620E-02 O_TOT=  0.1009946E-01 <-- DLTA
 ------------------------------------------------------------------------------
 Cycle:     66
  WF centre and spread    1  ( -0.104461,  0.074840,  2.391917 )     6.47341388
  WF centre and spread    2  (  0.104611,  0.074870,  2.391934 )     6.47258849
  WF centre and spread    3  (  0.000137,  0.127029,  2.655533 )     6.92075221
  WF centre and spread    4  (  0.007494, -0.343825,  2.421122 )     9.89913176
  Sum of centres and spreads (  0.007780, -0.067085,  9.860505 )    29.76588634

     66     0.795E-01    11.2875931371       29.7658622465       1.49  <-- CONV
        O_D=      1.3893912 O_OD=      8.7005468 O_TOT=     29.7658622 <-- SPRD
 Delta: O_D=  0.7722458E-01 O_OD=  0.2241029E-02 O_TOT=  0.7946561E-01 <-- DLTA
 ------------------------------------------------------------------------------
 Cycle:     67
  WF centre and spread    1  ( -0.104468,  0.074777,  2.391936 )     6.47529148
  WF centre and spread    2  (  0.104728,  0.074858,  2.391964 )     6.47427093
  WF centre and spread    3  (  0.000187,  0.127003,  2.655563 )     6.92256108
  WF centre and spread    4  (  0.005592, -0.345105,  2.422491 )     9.82979159
  Sum of centres and spreads (  0.006039, -0.068467,  9.861954 )    29.70191508

     67    -0.640E-01     6.5223230634       29.7018909792       1.51  <-- CONV
        O_D=      1.3232406 O_OD=      8.7027262 O_TOT=     29.7018910 <-- SPRD
 Delta: O_D= -0.6615061E-01 O_OD=  0.2179347E-02 O_TOT= -0.6397127E-01 <-- DLTA
 ------------------------------------------------------------------------------
 Cycle:     68
  WF centre and spread    1  ( -0.104510,  0.074805,  2.391955 )     6.47539716
  WF centre and spread    2  (  0.104707,  0.074872,  2.391985 )     6.47453570
  WF centre and spread    3  (  0.000149,  0.127031,  2.655589 )     6.92281433
  WF centre and spread    4  (  0.002926, -0.342817,  2.421864 )     9.82061283
  Sum of centres and spreads (  0.003272, -0.066109,  9.861392 )    29.69336002

     68    -0.856E-02     1.0662850356       29.6933359198       1.54  <-- CONV
        O_D=      1.3147630 O_OD=      8.7026488 O_TOT=     29.6933359 <-- SPRD
 Delta: O_D= -0.8477678E-02 O_OD= -0.7738164E-04 O_TOT= -0.8555059E-02 <-- DLTA
 ------------------------------------------------------------------------------
 Cycle:     69
  WF centre and spread    1  ( -0.104505,  0.074790,  2.391951 )     6.47557858
  WF centre and spread    2  (  0.104717,  0.074856,  2.391978 )     6.47462426
  WF centre and spread    3  (  0.000160,  0.127018,  2.655579 )     6.92293538
  WF centre and spread    4  (  0.006361, -0.345376,  2.423006 )     9.81994277
  Sum of centres and spreads (  0.006732, -0.068712,  9.862515 )    29.69308098

     69    -0.279E-03     2.1736715860       29.6930568776       1.56  <-- CONV
        O_D=      1.3142121 O_OD=      8.7029206 O_TOT=     29.6930569 <-- SPRD
 Delta: O_D= -0.5509029E-03 O_OD=  0.2718607E-03 O_TOT= -0.2790422E-03 <-- DLTA
 ------------------------------------------------------------------------------
 Cycle:     70
  WF centre and spread    1  ( -0.104567,  0.074818,  2.391970 )     6.47578028
  WF centre and spread    2  (  0.104680,  0.074849,  2.391992 )     6.47500407
  WF centre and spread    3  (  0.000109,  0.127037,  2.655597 )     6.92329647
  WF centre and spread    4  (  0.003012, -0.344323,  2.422785 )     9.80963517
  Sum of centres and spreads (  0.003234, -0.067619,  9.862344 )    29.68371599

     70    -0.936E-02     1.9312783554       29.6836918854       1.58  <-- CONV
        O_D=      1.3047482 O_OD=      8.7030195 O_TOT=     29.6836919 <-- SPRD
 Delta: O_D= -0.9463868E-02 O_OD=  0.9887552E-04 O_TOT= -0.9364992E-02 <-- DLTA
 ------------------------------------------------------------------------------
 Cycle:     71
  WF centre and spread    1  ( -0.104607,  0.074866,  2.391989 )     6.47550543
  WF centre and spread    2  (  0.104637,  0.074875,  2.392013 )     6.47494891
  WF centre and spread    3  (  0.000063,  0.127084,  2.655622 )     6.92324536
  WF centre and spread    4  (  0.000765, -0.342451,  2.422524 )     9.80653863
  Sum of centres and spreads (  0.000858, -0.065627,  9.862148 )    29.68023834

     71    -0.348E-02     0.5278270161       29.6802142283       1.60  <-- CONV
        O_D=      1.3019126 O_OD=      8.7023774 O_TOT=     29.6802142 <-- SPRD
 Delta: O_D= -0.2835560E-02 O_OD= -0.6420975E-03 O_TOT= -0.3477657E-02 <-- DLTA
 ------------------------------------------------------------------------------
 Cycle:     72
  WF centre and spread    1  ( -0.104632,  0.074904,  2.392001 )     6.47511078
  WF centre and spread    2  (  0.104594,  0.074890,  2.392023 )     6.47471166
  WF centre and spread    3  (  0.000028,  0.127132,  2.655624 )     6.92311472
  WF centre and spread    4  ( -0.000004, -0.342177,  2.422323 )     9.80434839
  Sum of centres and spreads ( -0.000015, -0.065252,  9.861972 )    29.67728555

     72    -0.295E-02     0.4138890346       29.6772614399       1.62  <-- CONV
        O_D=      1.2998393 O_OD=      8.7014979 O_TOT=     29.6772614 <-- SPRD
 Delta: O_D= -0.2073330E-02 O_OD= -0.8794580E-03 O_TOT= -0.2952788E-02 <-- DLTA
 ------------------------------------------------------------------------------
 Cycle:     73
  WF centre and spread    1  ( -0.104613,  0.074911,  2.391991 )     6.47452497
  WF centre and spread    2  (  0.104568,  0.074893,  2.392014 )     6.47419546
  WF centre and spread    3  (  0.000026,  0.127165,  2.655591 )     6.92276324
  WF centre and spread    4  ( -0.000474, -0.342788,  2.421829 )     9.80516429
  Sum of centres and spreads ( -0.000492, -0.065819,  9.861426 )    29.67664796

     73    -0.638E-03     0.1508817095       29.6766238549       1.64  <-- CONV
        O_D=      1.3001516 O_OD=      8.7005480 O_TOT=     29.6766239 <-- SPRD
 Delta: O_D=  0.3123499E-03 O_OD= -0.9499349E-03 O_TOT= -0.6375850E-03 <-- DLTA
 ------------------------------------------------------------------------------
 Cycle:     74
  WF centre and spread    1  ( -0.104603,  0.074918,  2.391994 )     6.47443016
  WF centre and spread    2  (  0.104570,  0.074902,  2.392016 )     6.47407373
  WF centre and spread    3  (  0.000033,  0.127177,  2.655592 )     6.92268849
  WF centre and spread    4  ( -0.000030, -0.342255,  2.421668 )     9.80499132
  Sum of centres and spreads ( -0.000031, -0.065259,  9.861270 )    29.67618371

     74    -0.464E-03     0.2778531704       29.6761596038       1.66  <-- CONV
        O_D=      1.2998819 O_OD=      8.7003535 O_TOT=     29.6761596 <-- SPRD
 Delta: O_D= -0.2697342E-03 O_OD= -0.1945169E-03 O_TOT= -0.4642511E-03 <-- DLTA
 ------------------------------------------------------------------------------
 Cycle:     75
  WF centre and spread    1  ( -0.104569,  0.074917,  2.391982 )     6.47378445
  WF centre and spread    2  (  0.104541,  0.074902,  2.392007 )     6.47348067
  WF centre and spread    3  (  0.000038,  0.127211,  2.655552 )     6.92224058
  WF centre and spread    4  ( -0.000569, -0.342723,  2.421210 )     9.80617920
  Sum of centres and spreads ( -0.000558, -0.065693,  9.860751 )    29.67568489

     75    -0.499E-03     0.1182940079       29.6756607926       1.68  <-- CONV
        O_D=      1.3001272 O_OD=      8.6996094 O_TOT=     29.6756608 <-- SPRD
 Delta: O_D=  0.2452940E-03 O_OD= -0.7441051E-03 O_TOT= -0.4988112E-03 <-- DLTA
 ------------------------------------------------------------------------------
 Cycle:     76
  WF centre and spread    1  ( -0.104521,  0.074919,  2.391977 )     6.47319297
  WF centre and spread    2  (  0.104524,  0.074909,  2.392001 )     6.47284117
  WF centre and spread    3  (  0.000058,  0.127250,  2.655517 )     6.92178726
  WF centre and spread    4  (  0.000197, -0.343061,  2.420868 )     9.80752464
  Sum of centres and spreads (  0.000258, -0.065982,  9.860364 )    29.67534605

     76    -0.339E-03     0.1687846184       29.6753219501       1.71  <-- CONV
        O_D=      1.3005016 O_OD=      8.6988961 O_TOT=     29.6753220 <-- SPRD
 Delta: O_D=  0.3744118E-03 O_OD= -0.7132544E-03 O_TOT= -0.3388425E-03 <-- DLTA
 ------------------------------------------------------------------------------
 Cycle:     77
  WF centre and spread    1  ( -0.104484,  0.074941,  2.391983 )     6.47249235
  WF centre and spread    2  (  0.104490,  0.074931,  2.392009 )     6.47215735
  WF centre and spread    3  (  0.000061,  0.127311,  2.655500 )     6.92125820
  WF centre and spread    4  (  0.000296, -0.342367,  2.420611 )     9.80920592
  Sum of centres and spreads (  0.000363, -0.065184,  9.860104 )    29.67511381

     77    -0.232E-03     0.1146664195       29.6750897166       1.73  <-- CONV
        O_D=      1.3010845 O_OD=      8.6980810 O_TOT=     29.6750897 <-- SPRD
 Delta: O_D=  0.5828629E-03 O_OD= -0.8150964E-03 O_TOT= -0.2322335E-03 <-- DLTA
 ------------------------------------------------------------------------------
 Cycle:     78
  WF centre and spread    1  ( -0.104462,  0.074952,  2.391987 )     6.47190876
  WF centre and spread    2  (  0.104448,  0.074939,  2.392015 )     6.47164870
  WF centre and spread    3  (  0.000050,  0.127355,  2.655481 )     6.92083003
  WF centre and spread    4  ( -0.000429, -0.342298,  2.420519 )     9.81057889
  Sum of centres and spreads ( -0.000393, -0.065052,  9.860002 )    29.67496638

     78    -0.147E-03     0.1161498173       29.6749422851       1.75  <-- CONV
        O_D=      1.3014548 O_OD=      8.6975633 O_TOT=     29.6749423 <-- SPRD
 Delta: O_D=  0.3703261E-03 O_OD= -0.5177577E-03 O_TOT= -0.1474316E-03 <-- DLTA
 ------------------------------------------------------------------------------
 Cycle:     79
  WF centre and spread    1  ( -0.104446,  0.074955,  2.391989 )     6.47162039
  WF centre and spread    2  (  0.104429,  0.074942,  2.392019 )     6.47136897
  WF centre and spread    3  (  0.000048,  0.127378,  2.655471 )     6.92060266
  WF centre and spread    4  ( -0.000459, -0.342313,  2.420486 )     9.81131116
  Sum of centres and spreads ( -0.000428, -0.065039,  9.859965 )    29.67490318

     79    -0.632E-04     0.0954865999       29.6748790838       1.77  <-- CONV
        O_D=      1.3016085 O_OD=      8.6973464 O_TOT=     29.6748791 <-- SPRD
 Delta: O_D=  0.1536461E-03 O_OD= -0.2168473E-03 O_TOT= -0.6320123E-04 <-- DLTA
 ------------------------------------------------------------------------------
 Cycle:     80
  WF centre and spread    1  ( -0.104423,  0.074951,  2.391995 )     6.47141817
  WF centre and spread    2  (  0.104416,  0.074940,  2.392023 )     6.47111541
  WF centre and spread    3  (  0.000054,  0.127396,  2.655462 )     6.92040548
  WF centre and spread    4  ( -0.000210, -0.342404,  2.420567 )     9.81184276
  Sum of centres and spreads ( -0.000163, -0.065117,  9.860047 )    29.67478182

     80    -0.121E-03     0.0673652092       29.6747577199       1.79  <-- CONV
        O_D=      1.3015129 O_OD=      8.6973206 O_TOT=     29.6747577 <-- SPRD
 Delta: O_D= -0.9556415E-04 O_OD= -0.2579975E-04 O_TOT= -0.1213639E-03 <-- DLTA
 ------------------------------------------------------------------------------
 Cycle:     81
  WF centre and spread    1  ( -0.104395,  0.074948,  2.392003 )     6.47114397
  WF centre and spread    2  (  0.104399,  0.074940,  2.392030 )     6.47078109
  WF centre and spread    3  (  0.000061,  0.127421,  2.655453 )     6.92014446
  WF centre and spread    4  (  0.000270, -0.342355,  2.420614 )     9.81260307
  Sum of centres and spreads (  0.000335, -0.065047,  9.860101 )    29.67467260

     81    -0.109E-03     0.1077953016       29.6746484989       1.81  <-- CONV
        O_D=      1.3014692 O_OD=      8.6972551 O_TOT=     29.6746485 <-- SPRD
 Delta: O_D= -0.4366873E-04 O_OD= -0.6555227E-04 O_TOT= -0.1092210E-03 <-- DLTA
 ------------------------------------------------------------------------------
 Cycle:     82
  WF centre and spread    1  ( -0.104368,  0.074943,  2.392011 )     6.47075265
  WF centre and spread    2  (  0.104365,  0.074933,  2.392039 )     6.47038841
  WF centre and spread    3  (  0.000057,  0.127450,  2.655438 )     6.91980601
  WF centre and spread    4  ( -0.000003, -0.342722,  2.420780 )     9.81362023
  Sum of centres and spreads (  0.000051, -0.065396,  9.860268 )    29.67456731

     82    -0.105E-03     0.0971915788       29.6745432091       1.83  <-- CONV
        O_D=      1.3014186 O_OD=      8.6972004 O_TOT=     29.6745432 <-- SPRD
 Delta: O_D= -0.5058471E-04 O_OD= -0.5470512E-04 O_TOT= -0.1052898E-03 <-- DLTA
 ------------------------------------------------------------------------------
 Cycle:     83
  WF centre and spread    1  ( -0.104280,  0.074952,  2.392049 )     6.46938985
  WF centre and spread    2  (  0.104262,  0.074941,  2.392077 )     6.46902606
  WF centre and spread    3  (  0.000048,  0.127568,  2.655411 )     6.91865047
  WF centre and spread    4  ( -0.000302, -0.342288,  2.421145 )     9.81727198
  Sum of centres and spreads ( -0.000273, -0.064827,  9.860682 )    29.67433836

     83    -0.229E-03     0.0783008007       29.6743142647       1.85  <-- CONV
        O_D=      1.3017768 O_OD=      8.6966133 O_TOT=     29.6743143 <-- SPRD
 Delta: O_D=  0.3581354E-03 O_OD= -0.5870798E-03 O_TOT= -0.2289444E-03 <-- DLTA
 ------------------------------------------------------------------------------
 Cycle:     84
  WF centre and spread    1  ( -0.104252,  0.074952,  2.392058 )     6.46902575
  WF centre and spread    2  (  0.104238,  0.074943,  2.392086 )     6.46864146
  WF centre and spread    3  (  0.000050,  0.127598,  2.655402 )     6.91833738
  WF centre and spread    4  (  0.000021, -0.342231,  2.421201 )     9.81827951
  Sum of centres and spreads (  0.000057, -0.064738,  9.860747 )    29.67428409

     84    -0.543E-04     0.1053714986       29.6742599890       1.88  <-- CONV
        O_D=      1.3019050 O_OD=      8.6964308 O_TOT=     29.6742600 <-- SPRD
 Delta: O_D=  0.1282451E-03 O_OD= -0.1825208E-03 O_TOT= -0.5427571E-04 <-- DLTA
 ------------------------------------------------------------------------------
 Cycle:     85
  WF centre and spread    1  ( -0.104114,  0.074944,  2.392096 )     6.46703679
  WF centre and spread    2  (  0.104105,  0.074937,  2.392125 )     6.46664141
  WF centre and spread    3  (  0.000054,  0.127746,  2.655341 )     6.91668898
  WF centre and spread    4  (  0.000105, -0.343056,  2.421530 )     9.82376539
  Sum of centres and spreads (  0.000149, -0.065429,  9.861092 )    29.67413257

     85    -0.152E-03     0.0928819973       29.6741084713       1.90  <-- CONV
        O_D=      1.3027792 O_OD=      8.6954051 O_TOT=     29.6741085 <-- SPRD
 Delta: O_D=  0.8741558E-03 O_OD= -0.1025673E-02 O_TOT= -0.1515176E-03 <-- DLTA
 ------------------------------------------------------------------------------
 Cycle:     86
  WF centre and spread    1  ( -0.104114,  0.074949,  2.392099 )     6.46699260
  WF centre and spread    2  (  0.104103,  0.074941,  2.392128 )     6.46660373
  WF centre and spread    3  (  0.000053,  0.127753,  2.655344 )     6.91666168
  WF centre and spread    4  (  0.000032, -0.342477,  2.421331 )     9.82353436
  Sum of centres and spreads (  0.000075, -0.064834,  9.860901 )    29.67379237

     86    -0.340E-03     0.4093623978       29.6737682746       1.92  <-- CONV
        O_D=      1.3025278 O_OD=      8.6953163 O_TOT=     29.6737683 <-- SPRD
 Delta: O_D= -0.2513505E-03 O_OD= -0.8884621E-04 O_TOT= -0.3401967E-03 <-- DLTA
 ------------------------------------------------------------------------------
 Cycle:     87
  WF centre and spread    1  ( -0.104112,  0.074949,  2.392099 )     6.46694767
  WF centre and spread    2  (  0.104100,  0.074940,  2.392128 )     6.46657013
  WF centre and spread    3  (  0.000052,  0.127755,  2.655342 )     6.91663206
  WF centre and spread    4  ( -0.000213, -0.342532,  2.421321 )     9.82360606
  Sum of centres and spreads ( -0.000173, -0.064888,  9.860889 )    29.67375592

     87    -0.365E-04     0.1070839959       29.6737318220       1.94  <-- CONV
        O_D=      1.3025262 O_OD=      8.6952814 O_TOT=     29.6737318 <-- SPRD
 Delta: O_D= -0.1616268E-05 O_OD= -0.3483638E-04 O_TOT= -0.3645265E-04 <-- DLTA
 ------------------------------------------------------------------------------
 Cycle:     88
  WF centre and spread    1  ( -0.104063,  0.074939,  2.392101 )     6.46630512
  WF centre and spread    2  (  0.104073,  0.074934,  2.392130 )     6.46591600
  WF centre and spread    3  (  0.000065,  0.127790,  2.655313 )     6.91614154
  WF centre and spread    4  (  0.000248, -0.343104,  2.420967 )     9.82513264
  Sum of centres and spreads (  0.000322, -0.065441,  9.860511 )    29.67349529

     88    -0.261E-03     0.0940966997       29.6734711967       1.97  <-- CONV
        O_D=      1.3028440 O_OD=      8.6947030 O_TOT=     29.6734712 <-- SPRD
 Delta: O_D=  0.3178462E-03 O_OD= -0.5784714E-03 O_TOT= -0.2606252E-03 <-- DLTA
 ------------------------------------------------------------------------------
 Cycle:     89
  WF centre and spread    1  ( -0.104044,  0.074939,  2.392106 )     6.46589315
  WF centre and spread    2  (  0.104045,  0.074933,  2.392136 )     6.46555592
  WF centre and spread    3  (  0.000060,  0.127817,  2.655301 )     6.91583853
  WF centre and spread    4  ( -0.000286, -0.343234,  2.420886 )     9.82611904
  Sum of centres and spreads ( -0.000225, -0.065545,  9.860430 )    29.67340663

     89    -0.887E-04     0.0819867593       29.6733825342       1.99  <-- CONV
        O_D=      1.3030597 O_OD=      8.6943986 O_TOT=     29.6733825 <-- SPRD
 Delta: O_D=  0.2156575E-03 O_OD= -0.3043200E-03 O_TOT= -0.8866250E-04 <-- DLTA
 ------------------------------------------------------------------------------
 Cycle:     90
  WF centre and spread    1  ( -0.104020,  0.074941,  2.392113 )     6.46550298
  WF centre and spread    2  (  0.104021,  0.074934,  2.392144 )     6.46518308
  WF centre and spread    3  (  0.000060,  0.127845,  2.655291 )     6.91553632
  WF centre and spread    4  ( -0.000152, -0.343223,  2.420827 )     9.82710699
  Sum of centres and spreads ( -0.000091, -0.065502,  9.860375 )    29.67332937

     90    -0.773E-04     0.1246517423       29.6733052755       2.01  <-- CONV
        O_D=      1.3032748 O_OD=      8.6941063 O_TOT=     29.6733053 <-- SPRD
 Delta: O_D=  0.2151057E-03 O_OD= -0.2923645E-03 O_TOT= -0.7725873E-04 <-- DLTA
 ------------------------------------------------------------------------------
 Cycle:     91
  WF centre and spread    1  ( -0.104010,  0.074943,  2.392117 )     6.46532332
  WF centre and spread    2  (  0.104010,  0.074936,  2.392147 )     6.46501476
  WF centre and spread    3  (  0.000059,  0.127859,  2.655287 )     6.91539719
  WF centre and spread    4  ( -0.000278, -0.343169,  2.420812 )     9.82756189
  Sum of centres and spreads ( -0.000220, -0.065431,  9.860364 )    29.67329716

     91    -0.322E-04     0.1119297661       29.6732730664       2.03  <-- CONV
        O_D=      1.3033687 O_OD=      8.6939802 O_TOT=     29.6732731 <-- SPRD
 Delta: O_D=  0.9386709E-04 O_OD= -0.1260762E-03 O_TOT= -0.3220914E-04 <-- DLTA
 ------------------------------------------------------------------------------
 Cycle:     92
  WF centre and spread    1  ( -0.104008,  0.074944,  2.392118 )     6.46530354
  WF centre and spread    2  (  0.104008,  0.074936,  2.392148 )     6.46499122
  WF centre and spread    3  (  0.000060,  0.127861,  2.655287 )     6.91537905
  WF centre and spread    4  ( -0.000208, -0.343072,  2.420783 )     9.82761062
  Sum of centres and spreads ( -0.000148, -0.065331,  9.860336 )    29.67328443

     92    -0.127E-04     0.0749079211       29.6732603301       2.06  <-- CONV
        O_D=      1.3033667 O_OD=      8.6939694 O_TOT=     29.6732603 <-- SPRD
 Delta: O_D= -0.1951723E-05 O_OD= -0.1078452E-04 O_TOT= -0.1273625E-04 <-- DLTA
 ------------------------------------------------------------------------------
 Cycle:     93
  WF centre and spread    1  ( -0.103989,  0.074942,  2.392125 )     6.46505794
  WF centre and spread    2  (  0.103988,  0.074935,  2.392155 )     6.46473097
  WF centre and spread    3  (  0.000059,  0.127883,  2.655279 )     6.91515958
  WF centre and spread    4  ( -0.000374, -0.343073,  2.420885 )     9.82825524
  Sum of centres and spreads ( -0.000315, -0.065312,  9.860444 )    29.67320373

     93    -0.807E-04     0.0732353087       29.6731796280       2.09  <-- CONV
        O_D=      1.3033038 O_OD=      8.6939517 O_TOT=     29.6731796 <-- SPRD
 Delta: O_D= -0.6297213E-04 O_OD= -0.1772997E-04 O_TOT= -0.8070210E-04 <-- DLTA
 ------------------------------------------------------------------------------
 Cycle:     94
  WF centre and spread    1  ( -0.103986,  0.074941,  2.392125 )     6.46505207
  WF centre and spread    2  (  0.103989,  0.074935,  2.392155 )     6.46471356
  WF centre and spread    3  (  0.000061,  0.127884,  2.655278 )     6.91514927
  WF centre and spread    4  ( -0.000077, -0.343148,  2.420912 )     9.82823898
  Sum of centres and spreads ( -0.000013, -0.065388,  9.860471 )    29.67315389

     94    -0.498E-04     0.1782521630       29.6731297897       2.12  <-- CONV
        O_D=      1.3032500 O_OD=      8.6939555 O_TOT=     29.6731298 <-- SPRD
 Delta: O_D= -0.5370714E-04 O_OD=  0.3868841E-05 O_TOT= -0.4983830E-04 <-- DLTA
 ------------------------------------------------------------------------------
 Cycle:     95
  WF centre and spread    1  ( -0.103984,  0.074941,  2.392125 )     6.46502475
  WF centre and spread    2  (  0.103986,  0.074934,  2.392155 )     6.46468807
  WF centre and spread    3  (  0.000061,  0.127886,  2.655277 )     6.91512653
  WF centre and spread    4  ( -0.000128, -0.343214,  2.420948 )     9.82830688
  Sum of centres and spreads ( -0.000065, -0.065454,  9.860506 )    29.67314621

     95    -0.767E-05     0.0530190854       29.6731221166       2.14  <-- CONV
        O_D=      1.3032476 O_OD=      8.6939503 O_TOT=     29.6731221 <-- SPRD
 Delta: O_D= -0.2431780E-05 O_OD= -0.5241387E-05 O_TOT= -0.7673168E-05 <-- DLTA
 ------------------------------------------------------------------------------
 Cycle:     96
  WF centre and spread    1  ( -0.103932,  0.074948,  2.392148 )     6.46417356
  WF centre and spread    2  (  0.103921,  0.074940,  2.392179 )     6.46385599
  WF centre and spread    3  (  0.000052,  0.127958,  2.655260 )     6.91441754
  WF centre and spread    4  ( -0.000335, -0.342848,  2.421090 )     9.83056315
  Sum of centres and spreads ( -0.000294, -0.065002,  9.860677 )    29.67301024

     96    -0.136E-03     0.0659980007       29.6729861440       2.17  <-- CONV
        O_D=      1.3034923 O_OD=      8.6935696 O_TOT=     29.6729861 <-- SPRD
 Delta: O_D=  0.2447150E-03 O_OD= -0.3806876E-03 O_TOT= -0.1359726E-03 <-- DLTA
 ------------------------------------------------------------------------------
 Cycle:     97
  WF centre and spread    1  ( -0.103882,  0.074946,  2.392165 )     6.46341146
  WF centre and spread    2  (  0.103864,  0.074938,  2.392195 )     6.46310351
  WF centre and spread    3  (  0.000048,  0.128016,  2.655237 )     6.91378104
  WF centre and spread    4  ( -0.000764, -0.343079,  2.421261 )     9.83262075
  Sum of centres and spreads ( -0.000734, -0.065179,  9.860858 )    29.67291676

     97    -0.935E-04     0.0943484201       29.6728926632       2.20  <-- CONV
        O_D=      1.3036919 O_OD=      8.6932765 O_TOT=     29.6728927 <-- SPRD
 Delta: O_D=  0.1996040E-03 O_OD= -0.2930848E-03 O_TOT= -0.9348082E-04 <-- DLTA
 ------------------------------------------------------------------------------
 Cycle:     98
  WF centre and spread    1  ( -0.103877,  0.074946,  2.392166 )     6.46339975
  WF centre and spread    2  (  0.103866,  0.074939,  2.392196 )     6.46306903
  WF centre and spread    3  (  0.000052,  0.128018,  2.655237 )     6.91376347
  WF centre and spread    4  ( -0.000244, -0.342972,  2.421208 )     9.83260450
  Sum of centres and spreads ( -0.000203, -0.065069,  9.860806 )    29.67283675

     98    -0.800E-04     0.2023104913       29.6728126537       2.23  <-- CONV
        O_D=      1.3036358 O_OD=      8.6932526 O_TOT=     29.6728127 <-- SPRD
 Delta: O_D= -0.5609742E-04 O_OD= -0.2391207E-04 O_TOT= -0.8000949E-04 <-- DLTA
 ------------------------------------------------------------------------------
 Cycle:     99
  WF centre and spread    1  ( -0.103876,  0.074946,  2.392166 )     6.46338406
  WF centre and spread    2  (  0.103866,  0.074938,  2.392196 )     6.46304958
  WF centre and spread    3  (  0.000053,  0.128019,  2.655236 )     6.91374953
  WF centre and spread    4  ( -0.000279, -0.343019,  2.421220 )     9.83262569
  Sum of centres and spreads ( -0.000235, -0.065115,  9.860818 )    29.67280887

     99    -0.279E-04     0.1597325075       29.6727847666       2.25  <-- CONV
        O_D=      1.3036178 O_OD=      8.6932428 O_TOT=     29.6727848 <-- SPRD
 Delta: O_D= -0.1803800E-04 O_OD= -0.9849080E-05 O_TOT= -0.2788708E-04 <-- DLTA
 ------------------------------------------------------------------------------
 Cycle:    100
  WF centre and spread    1  ( -0.103870,  0.074945,  2.392166 )     6.46333145
  WF centre and spread    2  (  0.103864,  0.074938,  2.392196 )     6.46298912
  WF centre and spread    3  (  0.000055,  0.128023,  2.655234 )     6.91370509
  WF centre and spread    4  ( -0.000236, -0.342943,  2.421137 )     9.83274555
  Sum of centres and spreads ( -0.000187, -0.065037,  9.860733 )    29.67277122

    100    -0.376E-04     0.1121891389       29.6727471194       2.28  <-- CONV
        O_D=      1.3036201 O_OD=      8.6932028 O_TOT=     29.6727471 <-- SPRD
 Delta: O_D=  0.2349473E-05 O_OD= -0.3999668E-04 O_TOT= -0.3764721E-04 <-- DLTA
 ------------------------------------------------------------------------------

 Writing checkpoint file ZnSe.chk... done

 Final State
  WF centre and spread    1  ( -0.103870,  0.074945,  2.392166 )     6.46333145
  WF centre and spread    2  (  0.103864,  0.074938,  2.392196 )     6.46298912
  WF centre and spread    3  (  0.000055,  0.128023,  2.655234 )     6.91370509
  WF centre and spread    4  ( -0.000236, -0.342943,  2.421137 )     9.83274555
  Sum of centres and spreads ( -0.000187, -0.065037,  9.860733 )    29.67277122

         Spreads (Ang^2)       Omega I      =    19.675924196
        ================       Omega D      =     1.303620149
                               Omega OD     =     8.693202774
    Final Spread (Ang^2)       Omega Total  =    29.672747119
 ------------------------------------------------------------------------------
 Time for wannierise            2.291 (sec)

 Writing checkpoint file ZnSe.chk... done

 *---------------------------------------------------------------------------*
 |                               PLOTTING                                    |
 *---------------------------------------------------------------------------*


 Calculating interpolated band-structure

 Time to calculate interpolated band structure       0.278 (sec)

 Time for plotting              0.556 (sec)
 Total Execution Time           4.397 (sec)

 *===========================================================================*
 |                             TIMING INFORMATION                            |
 *===========================================================================*
 |    Tag                                                Ncalls      Time (s)|
 |---------------------------------------------------------------------------|
 |kmesh: get                                        :         1         1.400|
 |overlap: allocate                                 :         1         0.001|
 |overlap: read                                     :         1         0.099|
 |wann: main                                        :         1         2.291|
 |plot: main                                        :         1         0.556|
 *---------------------------------------------------------------------------*

 All done: wannier90 exiting
