
     Program PWSCF v.6.2 (svn rev. 13949:13950) starts on  3Jan2018 at 14:37:24 

     This program is part of the open-source Quantum ESPRESSO suite
     for quantum simulation of materials; please cite
         "P. Giannozzi et al., J. Phys.:Condens. Matter 21 395502 (2009);
         "P. Giannozzi et al., J. Phys.:Condens. Matter 29 465901 (2017);
          URL http://www.quantum-espresso.org", 
     in publications or presentations arising from this work. More details at
     http://www.quantum-espresso.org/quote

     Parallel version (MPI), running on     1 processors

     MPI processes distributed on     1 nodes
     Waiting for input...
     Reading input from standard input

     Current dimensions of program PWSCF are:
     Max number of different atomic species (ntypx) = 10
     Max number of k-points (npk) =  40000
     Max angular momentum in pseudopotentials (lmaxx) =  3

     Atomic positions and unit cell read from directory:
     ./Te.save/
 

     Subspace diagonalization in iterative solution of the eigenvalue problem:
     a serial algorithm will be used

 
     G-vector sticks info
     --------------------
     sticks:   dense  smooth     PW     G-vecs:    dense   smooth      PW
     Sum         199     199     85                 2981     2981     723
 


     bravais-lattice index     =            4
     lattice parameter (alat)  =       8.4225  a.u.
     unit-cell volume          =     691.7060 (a.u.)^3
     number of atoms/cell      =            3
     number of atomic types    =            1
     number of electrons       =        18.00
     number of Kohn-Sham states=           12
     kinetic-energy cutoff     =      10.0000  Ry
     charge density cutoff     =      40.0000  Ry
     Exchange-correlation      = PBE ( 1  4  3  4 0 0)

     celldm(1)=   8.422509  celldm(2)=   0.000000  celldm(3)=   1.336800
     celldm(4)=   0.000000  celldm(5)=   0.000000  celldm(6)=   0.000000

     crystal axes: (cart. coord. in units of alat)
               a(1) = (   1.000000   0.000000   0.000000 )  
               a(2) = (  -0.500000   0.866025   0.000000 )  
               a(3) = (   0.000000   0.000000   1.336800 )  

     reciprocal axes: (cart. coord. in units 2 pi/alat)
               b(1) = (  1.000000  0.577350  0.000000 )  
               b(2) = (  0.000000  1.154701  0.000000 )  
               b(3) = (  0.000000  0.000000  0.748055 )  


     PseudoPot. # 1 for Te read from file:
     ./Te.pbe-n-nc.UPF
     MD5 check sum: 2f4834189a22ccc7f0b39c4d5b713b52
     Pseudo is Norm-conserving + core correction, Zval =  6.0
     Generated using "atomic" code by A. Dal Corso  v.5.2.0
     Using radial grid of 1245 points,  2 beta functions with: 
                l(1) =   1
                l(2) =   2

     atomic species   valence    mass     pseudopotential
        Te             6.00     1.00000     Te( 1.00)

     No symmetry found


                                    s                        frac. trans.

      isym =  1     identity                                     

 cryst.   s( 1) = (     1          0          0      )
                  (     0          1          0      )
                  (     0          0          1      )

 cart.    s( 1) = (  1.0000000  0.0000000  0.0000000 )
                  (  0.0000000  1.0000000  0.0000000 )
                  (  0.0000000  0.0000000  1.0000000 )


     point group C_1 (1)    
     there are  1 classes
     the character table:

       E    
A      1.00

     the symmetry operations in each class and the name of the first element:

     E        1
          identity                                               

   Cartesian axes

     site n.     atom                  positions (alat units)
         1           Te  tau(   1) = (   0.1370180   0.2373221   0.0000000  )
         2           Te  tau(   2) = (  -0.2740360   0.0000000   0.4456000  )
         3           Te  tau(   3) = (   0.1370180  -0.2373221   0.8912000  )

   Crystallographic axes

     site n.     atom                  positions (cryst. coord.)
         1           Te  tau(   1) = (  0.2740360  0.2740360  0.0000000  )
         2           Te  tau(   2) = ( -0.2740360  0.0000000  0.3333333  )
         3           Te  tau(   3) = (  0.0000000 -0.2740360  0.6666667  )

     number of k points=     8  Marzari-Vanderbilt smearing, width (Ry)=  0.0200
                       cart. coord. in units 2pi/alat
        k(    1) = (   0.0000000   0.0000000   0.0000000), wk =   0.2500000
        k(    2) = (   0.0000000   0.0000000   0.3740275), wk =   0.2500000
        k(    3) = (   0.0000000   0.5773503   0.0000000), wk =   0.2500000
        k(    4) = (   0.0000000   0.5773503   0.3740275), wk =   0.2500000
        k(    5) = (   0.5000000   0.2886751   0.0000000), wk =   0.2500000
        k(    6) = (   0.5000000   0.2886751   0.3740275), wk =   0.2500000
        k(    7) = (   0.5000000   0.8660254   0.0000000), wk =   0.2500000
        k(    8) = (   0.5000000   0.8660254   0.3740275), wk =   0.2500000

                       cryst. coord.
        k(    1) = (   0.0000000   0.0000000   0.0000000), wk =   0.2500000
        k(    2) = (   0.0000000   0.0000000   0.5000000), wk =   0.2500000
        k(    3) = (   0.0000000   0.5000000   0.0000000), wk =   0.2500000
        k(    4) = (   0.0000000   0.5000000   0.5000000), wk =   0.2500000
        k(    5) = (   0.5000000   0.0000000   0.0000000), wk =   0.2500000
        k(    6) = (   0.5000000   0.0000000   0.5000000), wk =   0.2500000
        k(    7) = (   0.5000000   0.5000000   0.0000000), wk =   0.2500000
        k(    8) = (   0.5000000   0.5000000   0.5000000), wk =   0.2500000

     Dense  grid:     2981 G-vectors     FFT dimensions: (  18,  18,  24)

     Dynamical RAM for                 wfc:       0.07 MB

     Dynamical RAM for     wfc (w. buffer):       0.07 MB

     Dynamical RAM for           str. fact:       0.05 MB

     Dynamical RAM for           local pot:       0.00 MB

     Dynamical RAM for          nlocal pot:       0.14 MB

     Dynamical RAM for                qrad:       0.10 MB

     Dynamical RAM for          rho,v,vnew:       0.31 MB

     Dynamical RAM for           G-vectors:       0.19 MB

     Dynamical RAM for          h,s,v(r/c):       0.01 MB

     Dynamical RAM for          <psi|beta>:       0.00 MB

     Dynamical RAM for      wfcinit/wfcrot:       0.14 MB

     Estimated static dynamical RAM per process >       1.24 MB

     Estimated max dynamical RAM per process >       1.38 MB

     Check: negative/imaginary core charge=   -0.000277    0.000000

     The potential is recalculated from file :
     ./Te.save/charge-density.dat

     Starting wfc are random

     Band Structure Calculation
     CG style diagonalization

     Computing kpt #:     1
     total cpu time spent up to now is        0.4 secs

     Computing kpt #:     2
     total cpu time spent up to now is        0.5 secs

     Computing kpt #:     3
     total cpu time spent up to now is        0.5 secs

     Computing kpt #:     4
     total cpu time spent up to now is        0.6 secs

     Computing kpt #:     5
     total cpu time spent up to now is        0.6 secs

     Computing kpt #:     6
     total cpu time spent up to now is        0.7 secs

     Computing kpt #:     7
     total cpu time spent up to now is        0.8 secs

     Computing kpt #:     8
     total cpu time spent up to now is        0.8 secs

     ethr =  5.56E-13,  avg # of iterations = 30.8

     total cpu time spent up to now is        0.8 secs

     End of band structure calculation

          k = 0.0000 0.0000 0.0000 (   365 PWs)   bands (ev):

    -7.4999  -4.2629  -4.2629   3.0455   3.3373   3.3373   4.3809   4.3809
     5.1402   7.0159   7.0159   7.6235

     occupation numbers 
     1.0000   1.0000   1.0000   1.0000   1.0000   1.0000   1.0000   1.0000
     1.0002   0.0000   0.0000   0.0000

          k = 0.0000 0.0000 0.3740 (   372 PWs)   bands (ev):

    -6.6253  -6.6253  -2.2615   2.1711   3.4001   3.4001   4.8005   5.0798
     5.0798   6.3998   6.3998   6.4301

     occupation numbers 
     1.0000   1.0000   1.0000   1.0000   1.0000   1.0000   1.0000   1.0001
     1.0001   0.0125   0.0125   0.0080

          k = 0.0000 0.5774 0.0000 (   368 PWs)   bands (ev):

    -6.3981  -5.0499  -4.0511   1.2663   1.6645   2.4368   2.5038   5.1155
     5.2823   6.7755   6.7967   8.9831

     occupation numbers 
     1.0000   1.0000   1.0000   1.0000   1.0000   1.0000   1.0000   1.0001
     1.0025   0.0000   0.0000   0.0000

          k = 0.0000 0.5774 0.3740 (   380 PWs)   bands (ev):

    -5.9900  -5.5792  -4.0513   0.4007   2.4330   2.4416   3.5618   3.8757
     5.8246   6.6851   7.9887   8.5764

     occupation numbers 
     1.0000   1.0000   1.0000   1.0000   1.0000   1.0000   1.0000   1.0000
     0.9862   0.0001   0.0000   0.0000

          k = 0.5000 0.2887 0.0000 (   368 PWs)   bands (ev):

    -6.3981  -5.0499  -4.0511   1.2663   1.6645   2.4368   2.5038   5.1155
     5.2823   6.7755   6.7967   8.9831

     occupation numbers 
     1.0000   1.0000   1.0000   1.0000   1.0000   1.0000   1.0000   1.0001
     1.0025   0.0000   0.0000   0.0000

          k = 0.5000 0.2887 0.3740 (   380 PWs)   bands (ev):

    -5.9900  -5.5792  -4.0513   0.4007   2.4330   2.4416   3.5618   3.8757
     5.8246   6.6851   7.9887   8.5764

     occupation numbers 
     1.0000   1.0000   1.0000   1.0000   1.0000   1.0000   1.0000   1.0000
     0.9862   0.0001   0.0000   0.0000

          k = 0.5000 0.8660 0.0000 (   368 PWs)   bands (ev):

    -6.3981  -5.0499  -4.0511   1.2663   1.6645   2.4368   2.5038   5.1155
     5.2823   6.7755   6.7967   8.9831

     occupation numbers 
     1.0000   1.0000   1.0000   1.0000   1.0000   1.0000   1.0000   1.0001
     1.0025   0.0000   0.0000   0.0000

          k = 0.5000 0.8660 0.3740 (   380 PWs)   bands (ev):

    -5.9900  -5.5792  -4.0513   0.4007   2.4330   2.4416   3.5618   3.8757
     5.8246   6.6851   7.9887   8.5764

     occupation numbers 
     1.0000   1.0000   1.0000   1.0000   1.0000   1.0000   1.0000   1.0000
     0.9862   0.0001   0.0000   0.0000

     the Fermi energy is     6.0656 ev

     Writing output data file Te.save
 
     init_run     :      0.04s CPU      0.05s WALL (       1 calls)
     electrons    :      0.47s CPU      0.52s WALL (       1 calls)

     Called by init_run:
     wfcinit      :      0.00s CPU      0.00s WALL (       1 calls)
     wfcinit:wfcr :      0.01s CPU      0.02s WALL (       8 calls)
     potinit      :      0.00s CPU      0.00s WALL (       1 calls)

     Called by electrons:
     c_bands      :      0.47s CPU      0.52s WALL (       1 calls)
     v_of_rho     :      0.00s CPU      0.00s WALL (       1 calls)
     v_h          :      0.00s CPU      0.00s WALL (       1 calls)
     v_xc         :      0.00s CPU      0.00s WALL (       1 calls)

     Called by c_bands:
     init_us_2    :      0.00s CPU      0.00s WALL (       8 calls)
     ccgdiagg     :      0.46s CPU      0.48s WALL (      17 calls)
     wfcrot       :      0.02s CPU      0.03s WALL (      17 calls)

     Called by sum_band:

     Called by *cgdiagg:
     h_psi        :      0.39s CPU      0.44s WALL (    2791 calls)
     cdiaghg      :      0.00s CPU      0.00s WALL (      17 calls)

     Called by h_psi:
     h_psi:pot    :      0.39s CPU      0.43s WALL (    2791 calls)
     h_psi:calbec :      0.04s CPU      0.03s WALL (    2791 calls)
     vloc_psi     :      0.34s CPU      0.37s WALL (    2791 calls)
     add_vuspsi   :      0.01s CPU      0.02s WALL (    2791 calls)
     h_1psi       :      0.39s CPU      0.42s WALL (    2774 calls)

     General routines
     calbec       :      0.06s CPU      0.04s WALL (    5565 calls)
     fft          :      0.00s CPU      0.00s WALL (      12 calls)
     fftw         :      0.30s CPU      0.33s WALL (    5956 calls)
     davcio       :      0.00s CPU      0.00s WALL (      16 calls)
 
     Parallel routines
     fft_scatt_xy :      0.08s CPU      0.05s WALL (    5968 calls)
     fft_scatt_yz :      0.02s CPU      0.03s WALL (    5968 calls)
 
     PWSCF        :     0.67s CPU         1.56s WALL

 
   This run was terminated on:  14:37:26   3Jan2018            

=------------------------------------------------------------------------------=
   JOB DONE.
=------------------------------------------------------------------------------=
