 
             +---------------------------------------------------+
             |                                                   |
             |                   WANNIER90                       |
             |                                                   |
             +---------------------------------------------------+
             |                                                   |
             |        Welcome to the Maximally-Localized         |
             |        Generalized Wannier Functions code         |
             |            http://www.wannier.org                 |
             |                                                   |
             |  Wannier90 v2.x Authors:                          |
             |    Arash A. Mostofi  (Imperial College London)    |
             |    Giovanni Pizzi    (EPFL)                       |
             |    Ivo Souza         (Universidad del Pais Vasco) |
             |    Jonathan R. Yates (University of Oxford)       |
             |                                                   |
             |  Wannier90 Contributors:                          |
             |    Young-Su Lee       (KIST, S. Korea)            |
             |    Matthew Shelley    (Imperial College London)   |
             |    Nicolas Poilvert   (Penn State University)     |
             |    Raffaello Bianco   (Paris 6 and CNRS)          |
             |    Gabriele Sclauzero (ETH Zurich)                |
             |    David Strubbe (MIT, USA)                       |
             |    Rei Sakuma (Lund University, Sweden)           |
             |    Yusuke Nomura (U. Tokyo, Japan)                |
             |    Takashi Koretsune (Riken, Japan)               |
             |    Yoshiro Nohara (ASMS Co. Ltd., Japan)          |
             |    Ryotaro Arita (Riken, Japan)                   |
             |    Lorenzo Paulatto (UPMC Paris)                  |
             |    Florian Thole (ETH Zurich)                     |
             |    Pablo Garcia Fernandez (Unican, Spain)         |
             |    Dominik Gresch (ETH Zurich)                    |
             |    Samuel Ponce (University of Oxford)            |
             |    Marco Gibertini (EPFL)                         |
             |    Christian Stieger (ETHZ, CH)                   |
             |    Stepan Tsirkin (Universidad del Pais Vasco)    |
             |                                                   |
             |  Wannier77 Authors:                               |
             |    Nicola Marzari    (EPFL)                       |
             |    Ivo Souza         (Universidad del Pais Vasco) |
             |    David Vanderbilt  (Rutgers University)         |
             |                                                   |
             |  Please cite                                      |
             |                                                   |
             |  [ref] "An updated version of Wannier90:          |
             |        A Tool for Obtaining Maximally Localised   |
             |        Wannier Functions", A. A. Mostofi,         |
             |        J. R. Yates, G. Pizzi, Y. S. Lee,          |
             |        I. Souza, D. Vanderbilt and N. Marzari,    |
             |        Comput. Phys. Commun. 185, 2309 (2014)     |
             |        http://dx.doi.org/10.1016/j.cpc.2014.05.003|
             |                                                   |
             |  in any publications arising from the use of      |
             |  this code. For the method please cite            |
             |                                                   |
             |  [ref] "Maximally Localized Generalised Wannier   |
             |         Functions for Composite Energy Bands"     |
             |         N. Marzari and D. Vanderbilt              |
             |         Phys. Rev. B 56 12847 (1997)              |
             |                                                   |
             |  [ref] "Maximally Localized Wannier Functions     |
             |         for Entangled Energy Bands"               |
             |         I. Souza, N. Marzari and D. Vanderbilt    |
             |         Phys. Rev. B 65 035109 (2001)             |
             |                                                   |
             |                                                   |
             | Copyright (c) 1996-2017                           |
             |        Arash A. Mostofi, Jonathan R. Yates,       |
             |        Young-Su Lee, Giovanni Pizzi, Ivo Souza,   |
             |        David Vanderbilt and Nicola Marzari        |
             |                                                   |
             |        Release: 2.1.0   13th January 2017         |
             |                                                   |
             | This program is free software; you can            |
             | redistribute it and/or modify it under the terms  |
             | of the GNU General Public License as published by |
             | the Free Software Foundation; either version 2 of |
             | the License, or (at your option) any later version|
             |                                                   |
             | This program is distributed in the hope that it   |
             | will be useful, but WITHOUT ANY WARRANTY; without |
             | even the implied warranty of MERCHANTABILITY or   |
             | FITNESS FOR A PARTICULAR PURPOSE. See the GNU     |
             | General Public License for more details.          |
             |                                                   |
             | You should have received a copy of the GNU General|
             | Public License along with this program; if not,   |
             | write to the Free Software Foundation, Inc.,      |
             | 675 Mass Ave, Cambridge, MA 02139, USA.           |
             |                                                   |
             +---------------------------------------------------+
             |    Execution started on  3Jan2018 at 14:37:29     |
             +---------------------------------------------------+
 
 ******************************************************************************
 * -> Using CODATA 2006 constant values                                       *
 *    (http://physics.nist.gov/cuu/Constants/index.html)                      *
 * -> Using Bohr value from CODATA                                            *
 ******************************************************************************
 

 Running in serial (with parallel executable)
 
                                    ------
                                    SYSTEM
                                    ------
 
                              Lattice Vectors (Ang)
                    a_1     4.457000   0.000000   0.000000
                    a_2    -2.228500   3.859875   0.000000
                    a_3     0.000000   0.000000   5.958118
 
                   Unit Cell Volume:     102.50026  (Ang^3)
 
                        Reciprocal-Space Vectors (Ang^-1)
                    b_1     1.409734   0.813910   0.000000
                    b_2     0.000000   1.627821   0.000000
                    b_3     0.000000   0.000000   1.054559
  
 *----------------------------------------------------------------------------*
 |   Site       Fractional Coordinate          Cartesian Coordinate (Ang)     |
 +----------------------------------------------------------------------------+
 | Te   1   0.27404   0.27404   0.00000   |    0.61069   1.05774   0.00000    |
 | Te   2  -0.27404   0.00000   0.33333   |   -1.22138   0.00000   1.98604    |
 | Te   3   0.00000  -0.27404   0.66667   |    0.61069  -1.05774   3.97208    |
 *----------------------------------------------------------------------------*
  
                                ------------
                                K-POINT GRID
                                ------------
  
             Grid size =  2 x  2 x  2      Total points =    8
  
  
 *---------------------------------- MAIN ------------------------------------*
 |  Number of Wannier Functions               :                 9             |
 |  Number of input Bloch states              :                12             |
 |  Output verbosity (1=low, 5=high)          :                 1             |
 |  Timing Level (1=low, 5=high)              :                 1             |
 |  Optimisation (0=memory, 3=speed)          :                 3             |
 |  Length Unit                               :               Ang             |
 |  Post-processing setup (write *.nnkp)      :                 F             |
 |  Using Gamma-only branch of algorithms     :                 F             |
 *----------------------------------------------------------------------------*
 *------------------------------- WANNIERISE ---------------------------------*
 |  Total number of iterations                :              1000             |
 |  Number of CG steps before reset           :                 5             |
 |  Trial step length for line search         :             2.000             |
 |  Convergence tolerence                     :         0.100E-09             |
 |  Convergence window                        :                -1             |
 |  Iterations between writing output         :                 1             |
 |  Iterations between backing up to disk     :               100             |
 |  Write r^2_nm to file                      :                 F             |
 |  Write xyz WF centres to file              :                 F             |
 |  Write on-site energies <0n|H|0n> to file  :                 F             |
 |  Use guiding centre to control phases      :                 F             |
 |  Use phases for initial projections        :                 F             |
 *----------------------------------------------------------------------------*
 *------------------------------- DISENTANGLE --------------------------------*
 |  Using band disentanglement                :                 T             |
 |  Total number of iterations                :               200             |
 |  Mixing ratio                              :             0.500             |
 |  Convergence tolerence                     :         1.000E-10             |
 |  Convergence window                        :                 3             |
 *----------------------------------------------------------------------------*
 *-------------------------------- PLOTTING ----------------------------------*
 |  Plotting interpolated bandstructure       :                 T             |
 |   Number of K-path sections                :                 9             |
 |   Divisions along first K-path section     :               200             |
 |   Output format                            :           gnuplot             |
 |   Output mode                              :               s-k             |
 *----------------------------------------------------------------------------*
 |   K-space path sections:                                                   |
 |    From:  A    0.000  0.000  0.500     To:  G    0.000  0.000  0.000       |
 |    From:  G    0.000  0.000  0.000     To:  H    0.333  0.333  0.500       |
 |    From:  H    0.333  0.333  0.500     To:  A    0.000  0.000  0.500       |
 |    From:  A    0.000  0.000  0.500     To:  L    0.500  0.000  0.500       |
 |    From:  L    0.500  0.000  0.500     To:  H    0.333  0.333  0.500       |
 |    From:  H    0.333  0.333  0.500     To:  K    0.333  0.333  0.000       |
 |    From:  K    0.333  0.333  0.000     To:  G    0.000  0.000  0.000       |
 |    From:  G    0.000  0.000  0.000     To:  M    0.500  0.000  0.000       |
 |    From:  M    0.500  0.000  0.000     To:  K    0.333  0.333  0.000       |
 *----------------------------------------------------------------------------*
 Time to read parameters        0.008 (sec)

 *---------------------------------- K-MESH ----------------------------------*
 +----------------------------------------------------------------------------+
 |                    Distance to Nearest-Neighbour Shells                    |
 |                    ------------------------------------                    |
 |          Shell             Distance (Ang^-1)          Multiplicity         |
 |          -----             -----------------          ------------         |
 |             1                   0.527279                      2            |
 |             2                   0.813910                      6            |
 |             3                   0.969780                     12            |
 |             4                   1.054559                      2            |
 |             5                   1.332120                     12            |
 |             6                   1.409734                      6            |
 |             7                   1.505116                     12            |
 |             8                   1.581838                      2            |
 |             9                   1.627821                      6            |
 |            10                   1.711089                     12            |
 |            11                   1.760524                     12            |
 |            12                   1.778950                     12            |
 +----------------------------------------------------------------------------+
 | The b-vectors are chosen automatically                                     |
 | The following shells are used:   1,  2                                     |
 +----------------------------------------------------------------------------+
 |                        Shell   # Nearest-Neighbours                        |
 |                        -----   --------------------                        |
 |                          1               2                                 |
 |                          2               6                                 |
 +----------------------------------------------------------------------------+
 | Completeness relation is fully satisfied [Eq. (B1), PRB 56, 12847 (1997)]  |
 +----------------------------------------------------------------------------+
 |                  b_k Vectors (Ang^-1) and Weights (Ang^2)                  |
 |                  ----------------------------------------                  |
 |            No.         b_k(x)      b_k(y)      b_k(z)        w_b           |
 |            ---        --------------------------------     --------        |
 |             1         0.000000    0.000000    0.527279     1.798409        |
 |             2         0.000000    0.000000   -0.527279     1.798409        |
 |             3         0.000000    0.813910    0.000000     0.503183        |
 |             4         0.704867    0.406955    0.000000     0.503183        |
 |             5         0.000000   -0.813910    0.000000     0.503183        |
 |             6         0.704867   -0.406955    0.000000     0.503183        |
 |             7        -0.704867   -0.406955    0.000000     0.503183        |
 |             8        -0.704867    0.406955    0.000000     0.503183        |
 +----------------------------------------------------------------------------+
 |                           b_k Directions (Ang^-1)                          |
 |                           -----------------------                          |
 |            No.           x           y           z                         |
 |            ---        --------------------------------                     |
 |             1         0.000000    0.000000    0.527279                     |
 |             2         0.000000    0.813910    0.000000                     |
 |             3         0.704867    0.406955    0.000000                     |
 |             4         0.704867   -0.406955    0.000000                     |
 +----------------------------------------------------------------------------+
  
 Time to get kmesh              0.008 (sec)
 *============================================================================*
 |                              MEMORY ESTIMATE                               |
 |         Maximum RAM allocated during each phase of the calculation         |
 *============================================================================*
 |                        Disentanglement            0.26 Mb                  |
 |                            Wannierise:            0.25 Mb                  |
 |                          plot_wannier:            0.25 Mb                  |
 *----------------------------------------------------------------------------*
  
 Starting a new Wannier90 calculation ...


 Reading overlaps from Te.mmn    :  Created on  3Jan2018 at 14:37:27

 Reading projections from Te.amn :  Created on  3Jan2018 at 14:37:27

 Time to read overlaps          0.008 (sec)

 *------------------------------- DISENTANGLE --------------------------------*
 +----------------------------------------------------------------------------+
 |                              Energy  Windows                               |
 |                              ---------------                               |
 |                   Outer:   -0.50000  to   10.00000  (eV)                   |
 |                   Inner:    0.00000  to    8.00000  (eV)                   |
 +----------------------------------------------------------------------------+
   Number of target bands to extract:    9

                   Unitarised projection of Wannier functions                  
                   ------------------------------------------                  
   A_mn = <psi_m|g_n> --> S = A.A^+ --> U = S^-1/2.A
   In dis_project... done
   Using an inner window (linner = T)
   In dis_proj_froz... done

                   Extraction of optimally-connected subspace                  
                   ------------------------------------------                  
 +---------------------------------------------------------------------+<-- DIS
 |  Iter     Omega_I(i-1)      Omega_I(i)      Delta (frac.)    Time   |<-- DIS
 +---------------------------------------------------------------------+<-- DIS
       1      19.33357069      19.33357069       2.220E-16      0.00    <-- DIS
       2      19.33357069      19.33357069       2.220E-16      0.00    <-- DIS
       3      19.33357069      19.33357069       2.220E-16      0.00    <-- DIS

             <<<      Delta < 1.000E-10  over  3 iterations     >>>
             <<< Disentanglement convergence criteria satisfied >>>

        Final Omega_I    19.33357069 (Ang^2)

 +----------------------------------------------------------------------------+

 Time to disentangle bands      0.000 (sec)

 Writing checkpoint file Te.chk... done

 
 *------------------------------- WANNIERISE ---------------------------------*
 +--------------------------------------------------------------------+<-- CONV
 | Iter  Delta Spread     RMS Gradient      Spread (Ang^2)      Time  |<-- CONV
 +--------------------------------------------------------------------+<-- CONV
 
 ------------------------------------------------------------------------------
 Initial State
  WF centre and spread    1  (  0.593580,  1.062356, -0.010413 )     2.85523291
  WF centre and spread    2  (  0.660660,  1.065092,  0.000886 )     2.71835721
  WF centre and spread    3  (  0.599167,  1.071386,  0.009561 )     2.52598507
  WF centre and spread    4  ( -1.252716, -0.021618,  1.974110 )     2.93581441
  WF centre and spread    5  ( -1.263090,  0.042972,  1.986958 )     2.69608965
  WF centre and spread    6  ( -1.177078, -0.015576,  1.991583 )     2.48746074
  WF centre and spread    7  (  0.600141, -1.079410,  3.934985 )     2.90244599
  WF centre and spread    8  (  0.640897, -1.082725,  3.971781 )     2.70733559
  WF centre and spread    9  (  0.616332, -1.030024,  4.024744 )     2.51361172
  Sum of centres and spreads (  0.017892,  0.012454, 17.884195 )    24.34233328
 
      0     0.243E+02     0.0000000000       24.3423332798       0.04  <-- CONV
        O_D=      0.0971062 O_OD=      4.9116564 O_TOT=     24.3423333 <-- SPRD
 ------------------------------------------------------------------------------
 Cycle:      1
  WF centre and spread    1  (  0.592488,  1.066261, -0.016133 )     2.83614175
  WF centre and spread    2  (  0.659122,  1.057525,  0.002846 )     2.70456244
  WF centre and spread    3  (  0.597041,  1.067042,  0.010625 )     2.51432763
  WF centre and spread    4  ( -1.255859, -0.024741,  1.971863 )     2.89836805
  WF centre and spread    5  ( -1.252728,  0.045735,  1.989709 )     2.67838253
  WF centre and spread    6  ( -1.174274, -0.015303,  1.991862 )     2.49056167
  WF centre and spread    7  (  0.602062, -1.081096,  3.926000 )     2.86530072
  WF centre and spread    8  (  0.635172, -1.075277,  3.971277 )     2.68709691
  WF centre and spread    9  (  0.618093, -1.025262,  4.038719 )     2.50888415
  Sum of centres and spreads (  0.021117,  0.014884, 17.886768 )    24.18362586
 
      1    -0.159E+00     0.7944358673       24.1836258646       0.04  <-- CONV
        O_D=      0.1082818 O_OD=      4.7417734 O_TOT=     24.1836259 <-- SPRD
 Delta: O_D=  0.1117563E-01 O_OD= -0.1698830E+00 O_TOT= -0.1587074E+00 <-- DLTA
 ------------------------------------------------------------------------------
 Cycle:      2
  WF centre and spread    1  (  0.592266,  1.067191, -0.017042 )     2.82994888
  WF centre and spread    2  (  0.660888,  1.054031,  0.003162 )     2.70400863
  WF centre and spread    3  (  0.595259,  1.064943,  0.011534 )     2.51650443
  WF centre and spread    4  ( -1.255550, -0.026722,  1.971405 )     2.88093605
  WF centre and spread    5  ( -1.249513,  0.047906,  1.989991 )     2.67852353
  WF centre and spread    6  ( -1.172411, -0.014777,  1.991593 )     2.49921703
  WF centre and spread    7  (  0.602072, -1.080634,  3.922998 )     2.84632792
  WF centre and spread    8  (  0.633370, -1.073258,  3.971049 )     2.68018783
  WF centre and spread    9  (  0.618729, -1.022467,  4.044280 )     2.51180713
  Sum of centres and spreads (  0.025110,  0.016213, 17.888969 )    24.14746143
 
      2    -0.362E-01     0.5016753714       24.1474614327       0.05  <-- CONV
        O_D=      0.1013573 O_OD=      4.7125335 O_TOT=     24.1474614 <-- SPRD
 Delta: O_D= -0.6924527E-02 O_OD= -0.2923990E-01 O_TOT= -0.3616443E-01 <-- DLTA
 ------------------------------------------------------------------------------
 Cycle:      3
  WF centre and spread    1  (  0.591538,  1.068233, -0.016703 )     2.82503103
  WF centre and spread    2  (  0.663368,  1.051381,  0.003461 )     2.70704513
  WF centre and spread    3  (  0.593108,  1.062673,  0.012855 )     2.52018998
  WF centre and spread    4  ( -1.254118, -0.027357,  1.971346 )     2.86365917
  WF centre and spread    5  ( -1.247344,  0.050871,  1.989341 )     2.68414627
  WF centre and spread    6  ( -1.170724, -0.013961,  1.991369 )     2.50872209
  WF centre and spread    7  (  0.602000, -1.080184,  3.921418 )     2.82992396
  WF centre and spread    8  (  0.631924, -1.072341,  3.970891 )     2.67594216
  WF centre and spread    9  (  0.619206, -1.019736,  4.048282 )     2.51470760
  Sum of centres and spreads (  0.028959,  0.019579, 17.892261 )    24.12936738
 
      3    -0.181E-01     0.2777678856       24.1293673831       0.05  <-- CONV
        O_D=      0.1002333 O_OD=      4.6955634 O_TOT=     24.1293674 <-- SPRD
 Delta: O_D= -0.1123998E-02 O_OD= -0.1697005E-01 O_TOT= -0.1809405E-01 <-- DLTA
 ------------------------------------------------------------------------------
 Cycle:      4
  WF centre and spread    1  (  0.591405,  1.068799, -0.017707 )     2.81968952
  WF centre and spread    2  (  0.665470,  1.049918,  0.004346 )     2.71190942
  WF centre and spread    3  (  0.591368,  1.060150,  0.014540 )     2.52579620
  WF centre and spread    4  ( -1.252725, -0.027117,  1.970335 )     2.84973080
  WF centre and spread    5  ( -1.245441,  0.051081,  1.989172 )     2.68926713
  WF centre and spread    6  ( -1.170767, -0.013494,  1.993492 )     2.51656949
  WF centre and spread    7  (  0.602779, -1.079323,  3.920118 )     2.81963671
  WF centre and spread    8  (  0.629093, -1.071784,  3.971078 )     2.67512139
  WF centre and spread    9  (  0.619870, -1.017378,  4.050441 )     2.51466719
  Sum of centres and spreads (  0.031052,  0.020852, 17.895815 )    24.12238787
 
      4    -0.698E-02     0.1381991210       24.1223878649       0.05  <-- CONV
        O_D=      0.0988516 O_OD=      4.6899656 O_TOT=     24.1223879 <-- SPRD
 Delta: O_D= -0.1381708E-02 O_OD= -0.5597810E-02 O_TOT= -0.6979518E-02 <-- DLTA
 ------------------------------------------------------------------------------
 Cycle:      5
  WF centre and spread    1  (  0.591926,  1.069636, -0.017743 )     2.81259168
  WF centre and spread    2  (  0.666827,  1.048931,  0.004858 )     2.71698241
  WF centre and spread    3  (  0.588785,  1.056391,  0.017083 )     2.53425414
  WF centre and spread    4  ( -1.250654, -0.026285,  1.969120 )     2.83166600
  WF centre and spread    5  ( -1.243740,  0.049945,  1.988571 )     2.69626110
  WF centre and spread    6  ( -1.171819, -0.012889,  1.996095 )     2.52680165
  WF centre and spread    7  (  0.604373, -1.077971,  3.919728 )     2.80792063
  WF centre and spread    8  (  0.624669, -1.071796,  3.971456 )     2.67504415
  WF centre and spread    9  (  0.620348, -1.014413,  4.051541 )     2.51296490
  Sum of centres and spreads (  0.030716,  0.021550, 17.900709 )    24.11448665
 
      5    -0.790E-02     0.1539131291       24.1144866545       0.05  <-- CONV
        O_D=      0.0949494 O_OD=      4.6859666 O_TOT=     24.1144867 <-- SPRD
 Delta: O_D= -0.3902203E-02 O_OD= -0.3999008E-02 O_TOT= -0.7901210E-02 <-- DLTA
 ------------------------------------------------------------------------------
 Cycle:      6
  WF centre and spread    1  (  0.595462,  1.072462, -0.016814 )     2.79794779
  WF centre and spread    2  (  0.668038,  1.048763,  0.004903 )     2.72248785
  WF centre and spread    3  (  0.583493,  1.046919,  0.022370 )     2.55341026
  WF centre and spread    4  ( -1.246261, -0.022300,  1.966682 )     2.79590697
  WF centre and spread    5  ( -1.241656,  0.042806,  1.986777 )     2.70890196
  WF centre and spread    6  ( -1.175909, -0.011722,  2.004068 )     2.54815158
  WF centre and spread    7  (  0.610758, -1.074992,  3.923557 )     2.78850297
  WF centre and spread    8  (  0.613510, -1.074297,  3.972175 )     2.67603089
  WF centre and spread    9  (  0.620132, -1.009730,  4.047178 )     2.50685742
  Sum of centres and spreads (  0.027565,  0.017909, 17.910895 )    24.09819769
 
      6    -0.163E-01     0.2024484423       24.0981976856       0.05  <-- CONV
        O_D=      0.0789891 O_OD=      4.6856379 O_TOT=     24.0981977 <-- SPRD
 Delta: O_D= -0.1596030E-01 O_OD= -0.3286658E-03 O_TOT= -0.1628897E-01 <-- DLTA
 ------------------------------------------------------------------------------
 Cycle:      7
  WF centre and spread    1  (  0.596580,  1.073482, -0.017446 )     2.79700325
  WF centre and spread    2  (  0.665208,  1.051400,  0.004685 )     2.71628880
  WF centre and spread    3  (  0.584736,  1.047387,  0.020518 )     2.54608479
  WF centre and spread    4  ( -1.247464, -0.021940,  1.966976 )     2.80317223
  WF centre and spread    5  ( -1.242602,  0.042307,  1.987759 )     2.70369632
  WF centre and spread    6  ( -1.176368, -0.011644,  2.003259 )     2.54003790
  WF centre and spread    7  (  0.611537, -1.075570,  3.926343 )     2.79683819
  WF centre and spread    8  (  0.614317, -1.074963,  3.971918 )     2.67408636
  WF centre and spread    9  (  0.619118, -1.012021,  4.042388 )     2.50560954
  Sum of centres and spreads (  0.025063,  0.018438, 17.906400 )    24.08281736
 
      7    -0.154E-01     0.2615143264       24.0828173641       0.05  <-- CONV
        O_D=      0.0770411 O_OD=      4.6722056 O_TOT=     24.0828174 <-- SPRD
 Delta: O_D= -0.1947981E-02 O_OD= -0.1343234E-01 O_TOT= -0.1538032E-01 <-- DLTA
 ------------------------------------------------------------------------------
 Cycle:      8
  WF centre and spread    1  (  0.598180,  1.075103, -0.017544 )     2.80045495
  WF centre and spread    2  (  0.662428,  1.054053,  0.004128 )     2.70694151
  WF centre and spread    3  (  0.585848,  1.048049,  0.019820 )     2.53578668
  WF centre and spread    4  ( -1.249067, -0.021337,  1.966463 )     2.81616756
  WF centre and spread    5  ( -1.243800,  0.041103,  1.988863 )     2.69576613
  WF centre and spread    6  ( -1.177204, -0.012389,  2.004575 )     2.52902606
  WF centre and spread    7  (  0.613449, -1.076391,  3.929752 )     2.81093967
  WF centre and spread    8  (  0.614654, -1.076915,  3.971935 )     2.67188790
  WF centre and spread    9  (  0.617716, -1.015480,  4.036250 )     2.50509106
  Sum of centres and spreads (  0.022205,  0.015796, 17.904242 )    24.07206152
 
      8    -0.108E-01     0.2110913038       24.0720615170       0.05  <-- CONV
        O_D=      0.0725576 O_OD=      4.6659333 O_TOT=     24.0720615 <-- SPRD
 Delta: O_D= -0.4483523E-02 O_OD= -0.6272324E-02 O_TOT= -0.1075585E-01 <-- DLTA
 ------------------------------------------------------------------------------
 Cycle:      9
  WF centre and spread    1  (  0.601052,  1.076179, -0.016228 )     2.80841319
  WF centre and spread    2  (  0.655459,  1.058985,  0.003218 )     2.69395100
  WF centre and spread    3  (  0.587519,  1.046975,  0.017030 )     2.52296469
  WF centre and spread    4  ( -1.250413, -0.019943,  1.967509 )     2.83313838
  WF centre and spread    5  ( -1.244800,  0.036716,  1.989551 )     2.68518292
  WF centre and spread    6  ( -1.178733, -0.011968,  2.003002 )     2.51546719
  WF centre and spread    7  (  0.615232, -1.077107,  3.934810 )     2.82853358
  WF centre and spread    8  (  0.615798, -1.078630,  3.971670 )     2.66959997
  WF centre and spread    9  (  0.614746, -1.019699,  4.027282 )     2.50513730
  Sum of centres and spreads (  0.015860,  0.011508, 17.897845 )    24.06238822
 
      9    -0.967E-02     0.1972017156       24.0623882154       0.05  <-- CONV
        O_D=      0.0649924 O_OD=      4.6638252 O_TOT=     24.0623882 <-- SPRD
 Delta: O_D= -0.7565206E-02 O_OD= -0.2108095E-02 O_TOT= -0.9673302E-02 <-- DLTA
 ------------------------------------------------------------------------------
 Cycle:     10
  WF centre and spread    1  (  0.605974,  1.076806, -0.013641 )     2.82040762
  WF centre and spread    2  (  0.646238,  1.065241,  0.002402 )     2.67946918
  WF centre and spread    3  (  0.588937,  1.041603,  0.013370 )     2.50816833
  WF centre and spread    4  ( -1.249901, -0.016599,  1.971112 )     2.84945098
  WF centre and spread    5  ( -1.244580,  0.028243,  1.989306 )     2.67245475
  WF centre and spread    6  ( -1.180600, -0.010403,  2.002785 )     2.50102061
  WF centre and spread    7  (  0.618266, -1.076103,  3.943523 )     2.84650445
  WF centre and spread    8  (  0.615377, -1.079964,  3.971648 )     2.66790401
  WF centre and spread    9  (  0.609901, -1.022961,  4.014380 )     2.50668750
  Sum of centres and spreads (  0.009613,  0.005862, 17.894884 )    24.05206742
 
     10    -0.103E-01     0.1557681780       24.0520674196       0.05  <-- CONV
        O_D=      0.0551846 O_OD=      4.6633121 O_TOT=     24.0520674 <-- SPRD
 Delta: O_D= -0.9807748E-02 O_OD= -0.5130477E-03 O_TOT= -0.1032080E-01 <-- DLTA
 ------------------------------------------------------------------------------
 Cycle:     11
  WF centre and spread    1  (  0.611218,  1.077114, -0.009441 )     2.82944485
  WF centre and spread    2  (  0.636426,  1.071577,  0.001351 )     2.67098942
  WF centre and spread    3  (  0.590431,  1.034297,  0.008377 )     2.49789562
  WF centre and spread    4  ( -1.247845, -0.011844,  1.975399 )     2.85543125
  WF centre and spread    5  ( -1.243679,  0.018332,  1.988120 )     2.66424207
  WF centre and spread    6  ( -1.182667, -0.007098,  1.999954 )     2.49203484
  WF centre and spread    7  (  0.620819, -1.074866,  3.953935 )     2.85622521
  WF centre and spread    8  (  0.615294, -1.079967,  3.971557 )     2.66815515
  WF centre and spread    9  (  0.604410, -1.025503,  3.998860 )     2.50884963
  Sum of centres and spreads (  0.004407,  0.002042, 17.888111 )    24.04326804
 
     11    -0.880E-02     0.1965941781       24.0432680407       0.06  <-- CONV
        O_D=      0.0464710 O_OD=      4.6632263 O_TOT=     24.0432680 <-- SPRD
 Delta: O_D= -0.8713564E-02 O_OD= -0.8581462E-04 O_TOT= -0.8799379E-02 <-- DLTA
 ------------------------------------------------------------------------------
 Cycle:     12
  WF centre and spread    1  (  0.617274,  1.077486, -0.003283 )     2.83331457
  WF centre and spread    2  (  0.625969,  1.078136,  0.000378 )     2.66768956
  WF centre and spread    3  (  0.591619,  1.025725,  0.003523 )     2.49327440
  WF centre and spread    4  ( -1.244431, -0.005998,  1.980476 )     2.84842067
  WF centre and spread    5  ( -1.242530,  0.007897,  1.986493 )     2.66088290
  WF centre and spread    6  ( -1.185014, -0.002763,  1.996611 )     2.49023653
  WF centre and spread    7  (  0.623333, -1.072934,  3.966304 )     2.85863484
  WF centre and spread    8  (  0.615033, -1.079079,  3.971800 )     2.66963511
  WF centre and spread    9  (  0.598682, -1.027623,  3.980908 )     2.51221864
  Sum of centres and spreads ( -0.000065,  0.000847, 17.883211 )    24.03430721
 
     12    -0.896E-02     0.1927234010       24.0343072150       0.06  <-- CONV
        O_D=      0.0415197 O_OD=      4.6592168 O_TOT=     24.0343072 <-- SPRD
 Delta: O_D= -0.4951314E-02 O_OD= -0.4009512E-02 O_TOT= -0.8960826E-02 <-- DLTA
 ------------------------------------------------------------------------------
 Cycle:     13
  WF centre and spread    1  (  0.617559,  1.077848, -0.002733 )     2.82599365
  WF centre and spread    2  (  0.627068,  1.076971,  0.000380 )     2.67309510
  WF centre and spread    3  (  0.591169,  1.025943,  0.003622 )     2.50082829
  WF centre and spread    4  ( -1.244289, -0.005991,  1.980686 )     2.83489259
  WF centre and spread    5  ( -1.242432,  0.006882,  1.986797 )     2.66780856
  WF centre and spread    6  ( -1.185843, -0.002212,  1.996566 )     2.49979597
  WF centre and spread    7  (  0.623399, -1.073555,  3.965937 )     2.84645232
  WF centre and spread    8  (  0.614898, -1.078389,  3.971852 )     2.66953862
  WF centre and spread    9  (  0.598700, -1.026982,  3.981547 )     2.51098905
  Sum of centres and spreads (  0.000229,  0.000516, 17.884654 )    24.02939417
 
     13    -0.491E-02     0.1241578749       24.0293941669       0.06  <-- CONV
        O_D=      0.0417921 O_OD=      4.6540313 O_TOT=     24.0293942 <-- SPRD
 Delta: O_D=  0.2724135E-03 O_OD= -0.5185462E-02 O_TOT= -0.4913048E-02 <-- DLTA
 ------------------------------------------------------------------------------
 Cycle:     14
  WF centre and spread    1  (  0.617800,  1.077937, -0.001741 )     2.81991605
  WF centre and spread    2  (  0.626736,  1.076861,  0.000362 )     2.67766147
  WF centre and spread    3  (  0.591146,  1.025607,  0.002688 )     2.50685219
  WF centre and spread    4  ( -1.244024, -0.005586,  1.980899 )     2.82458255
  WF centre and spread    5  ( -1.242268,  0.006010,  1.986728 )     2.67368489
  WF centre and spread    6  ( -1.186189, -0.001570,  1.995643 )     2.50672211
  WF centre and spread    7  (  0.623164, -1.073846,  3.966329 )     2.83757021
  WF centre and spread    8  (  0.614987, -1.077548,  3.971690 )     2.66992704
  WF centre and spread    9  (  0.598464, -1.026698,  3.981124 )     2.51048837
  Sum of centres and spreads ( -0.000184,  0.001167, 17.883723 )    24.02740489
 
     14    -0.199E-02     0.1065982152       24.0274048937       0.06  <-- CONV
        O_D=      0.0415131 O_OD=      4.6523211 O_TOT=     24.0274049 <-- SPRD
 Delta: O_D= -0.2790591E-03 O_OD= -0.1710214E-02 O_TOT= -0.1989273E-02 <-- DLTA
 ------------------------------------------------------------------------------
 Cycle:     15
  WF centre and spread    1  (  0.617868,  1.077854, -0.000669 )     2.81464684
  WF centre and spread    2  (  0.627291,  1.076326,  0.000432 )     2.68173991
  WF centre and spread    3  (  0.590993,  1.025450,  0.002550 )     2.51166341
  WF centre and spread    4  ( -1.243559, -0.005295,  1.981062 )     2.81593727
  WF centre and spread    5  ( -1.242097,  0.005936,  1.986408 )     2.67925937
  WF centre and spread    6  ( -1.186140, -0.001369,  1.995547 )     2.51217985
  WF centre and spread    7  (  0.623112, -1.073721,  3.966735 )     2.83050008
  WF centre and spread    8  (  0.614701, -1.076973,  3.971626 )     2.67043423
  WF centre and spread    9  (  0.598292, -1.026313,  3.980957 )     2.51000906
  Sum of centres and spreads (  0.000460,  0.001895, 17.884647 )    24.02637002
 
     15    -0.103E-02     0.0722677918       24.0263700150       0.06  <-- CONV
        O_D=      0.0414396 O_OD=      4.6513597 O_TOT=     24.0263700 <-- SPRD
 Delta: O_D= -0.7344609E-04 O_OD= -0.9614326E-03 O_TOT= -0.1034879E-02 <-- DLTA
 ------------------------------------------------------------------------------
 Cycle:     16
  WF centre and spread    1  (  0.617968,  1.077600,  0.000296 )     2.81154324
  WF centre and spread    2  (  0.627306,  1.076067,  0.000419 )     2.68447927
  WF centre and spread    3  (  0.591001,  1.025229,  0.001977 )     2.51432305
  WF centre and spread    4  ( -1.243257, -0.005002,  1.981484 )     2.81025950
  WF centre and spread    5  ( -1.242073,  0.005275,  1.985826 )     2.68371209
  WF centre and spread    6  ( -1.186136, -0.001222,  1.995177 )     2.51548938
  WF centre and spread    7  (  0.622947, -1.073628,  3.967102 )     2.82603663
  WF centre and spread    8  (  0.614717, -1.076475,  3.971537 )     2.67074645
  WF centre and spread    9  (  0.597694, -1.026159,  3.980273 )     2.50931029
  Sum of centres and spreads (  0.000168,  0.001685, 17.884090 )    24.02589990
 
     16    -0.470E-03     0.0414814368       24.0258999037       0.06  <-- CONV
        O_D=      0.0412896 O_OD=      4.6510396 O_TOT=     24.0258999 <-- SPRD
 Delta: O_D= -0.1500721E-03 O_OD= -0.3200391E-03 O_TOT= -0.4701113E-03 <-- DLTA
 ------------------------------------------------------------------------------
 Cycle:     17
  WF centre and spread    1  (  0.618032,  1.077542,  0.000821 )     2.81018098
  WF centre and spread    2  (  0.627189,  1.075909,  0.000268 )     2.68577288
  WF centre and spread    3  (  0.591024,  1.025094,  0.001625 )     2.51532059
  WF centre and spread    4  ( -1.243202, -0.004866,  1.981641 )     2.80769771
  WF centre and spread    5  ( -1.242084,  0.005020,  1.985529 )     2.68618824
  WF centre and spread    6  ( -1.186072, -0.001288,  1.995161 )     2.51693421
  WF centre and spread    7  (  0.622918, -1.073632,  3.967309 )     2.82390685
  WF centre and spread    8  (  0.614752, -1.076213,  3.971510 )     2.67074092
  WF centre and spread    9  (  0.597315, -1.026167,  3.979956 )     2.50894630
  Sum of centres and spreads ( -0.000127,  0.001400, 17.883819 )    24.02568869
 
     17    -0.211E-03     0.0315733909       24.0256886923       0.06  <-- CONV
        O_D=      0.0410754 O_OD=      4.6510426 O_TOT=     24.0256887 <-- SPRD
 Delta: O_D= -0.2141491E-03 O_OD=  0.2937707E-05 O_TOT= -0.2112114E-03 <-- DLTA
 ------------------------------------------------------------------------------
 Cycle:     18
  WF centre and spread    1  (  0.618362,  1.077570,  0.001739 )     2.80887939
  WF centre and spread    2  (  0.626680,  1.075851, -0.000098 )     2.68695266
  WF centre and spread    3  (  0.591172,  1.024861,  0.000936 )     2.51592377
  WF centre and spread    4  ( -1.243219, -0.004655,  1.981999 )     2.80573487
  WF centre and spread    5  ( -1.242143,  0.004585,  1.985178 )     2.68882086
  WF centre and spread    6  ( -1.185930, -0.001385,  1.995048 )     2.51808063
  WF centre and spread    7  (  0.622905, -1.073739,  3.967973 )     2.82209020
  WF centre and spread    8  (  0.615002, -1.075850,  3.971468 )     2.67037883
  WF centre and spread    9  (  0.596630, -1.026361,  3.978897 )     2.50859162
  Sum of centres and spreads ( -0.000542,  0.000876, 17.883139 )    24.02545283
 
     18    -0.236E-03     0.0268199092       24.0254528251       0.06  <-- CONV
        O_D=      0.0408043 O_OD=      4.6510778 O_TOT=     24.0254528 <-- SPRD
 Delta: O_D= -0.2711107E-03 O_OD=  0.3524341E-04 O_TOT= -0.2358672E-03 <-- DLTA
 ------------------------------------------------------------------------------
 Cycle:     19
  WF centre and spread    1  (  0.618490,  1.077754,  0.001882 )     2.80925986
  WF centre and spread    2  (  0.626567,  1.075910, -0.000121 )     2.68653183
  WF centre and spread    3  (  0.591191,  1.024873,  0.000774 )     2.51542830
  WF centre and spread    4  ( -1.243329, -0.004677,  1.982022 )     2.80654492
  WF centre and spread    5  ( -1.242235,  0.004903,  1.985058 )     2.68818330
  WF centre and spread    6  ( -1.185828, -0.001392,  1.994999 )     2.51760620
  WF centre and spread    7  (  0.622924, -1.073775,  3.968134 )     2.82293348
  WF centre and spread    8  (  0.615145, -1.075920,  3.971405 )     2.67015371
  WF centre and spread    9  (  0.596675, -1.026330,  3.978838 )     2.50863780
  Sum of centres and spreads ( -0.000401,  0.001347, 17.882992 )    24.02527939
 
     19    -0.173E-03     0.0301452245       24.0252793897       0.06  <-- CONV
        O_D=      0.0408272 O_OD=      4.6508815 O_TOT=     24.0252794 <-- SPRD
 Delta: O_D=  0.2288250E-04 O_OD= -0.1963179E-03 O_TOT= -0.1734354E-03 <-- DLTA
 ------------------------------------------------------------------------------
 Cycle:     20
  WF centre and spread    1  (  0.618811,  1.078031,  0.002256 )     2.81031888
  WF centre and spread    2  (  0.626223,  1.076090, -0.000317 )     2.68565961
  WF centre and spread    3  (  0.591245,  1.024787,  0.000458 )     2.51437866
  WF centre and spread    4  ( -1.243504, -0.004656,  1.982195 )     2.80840414
  WF centre and spread    5  ( -1.242377,  0.005047,  1.984883 )     2.68691797
  WF centre and spread    6  ( -1.185682, -0.001413,  1.994873 )     2.51654152
  WF centre and spread    7  (  0.622972, -1.073908,  3.968525 )     2.82459328
  WF centre and spread    8  (  0.615468, -1.076038,  3.971366 )     2.66956924
  WF centre and spread    9  (  0.596538, -1.026448,  3.978186 )     2.50874822
  Sum of centres and spreads ( -0.000307,  0.001492, 17.882425 )    24.02513151
 
     20    -0.148E-03     0.0230947664       24.0251315138       0.06  <-- CONV
        O_D=      0.0408463 O_OD=      4.6507145 O_TOT=     24.0251315 <-- SPRD
 Delta: O_D=  0.1915647E-04 O_OD= -0.1670324E-03 O_TOT= -0.1478759E-03 <-- DLTA
 ------------------------------------------------------------------------------
 Cycle:     21
  WF centre and spread    1  (  0.619420,  1.078675,  0.003050 )     2.81323719
  WF centre and spread    2  (  0.625358,  1.076418, -0.000848 )     2.68364814
  WF centre and spread    3  (  0.591361,  1.024489, -0.000344 )     2.51187565
  WF centre and spread    4  ( -1.243967, -0.004631,  1.982557 )     2.81278766
  WF centre and spread    5  ( -1.242632,  0.005561,  1.984508 )     2.68404941
  WF centre and spread    6  ( -1.185291, -0.001650,  1.994802 )     2.51397146
  WF centre and spread    7  (  0.623074, -1.074301,  3.969246 )     2.82808647
  WF centre and spread    8  (  0.616157, -1.076212,  3.971329 )     2.66816507
  WF centre and spread    9  (  0.596255, -1.026625,  3.977370 )     2.50904476
  Sum of centres and spreads ( -0.000265,  0.001724, 17.881670 )    24.02486581
 
     21    -0.266E-03     0.0258757961       24.0248658138       0.06  <-- CONV
        O_D=      0.0407470 O_OD=      4.6505481 O_TOT=     24.0248658 <-- SPRD
 Delta: O_D= -0.9936485E-04 O_OD= -0.1663351E-03 O_TOT= -0.2656999E-03 <-- DLTA
 ------------------------------------------------------------------------------
 Cycle:     22
  WF centre and spread    1  (  0.620327,  1.079400,  0.004498 )     2.81725925
  WF centre and spread    2  (  0.624046,  1.076665, -0.001660 )     2.68123367
  WF centre and spread    3  (  0.591532,  1.023833, -0.001818 )     2.50887245
  WF centre and spread    4  ( -1.244526, -0.004390,  1.983333 )     2.81814564
  WF centre and spread    5  ( -1.242891,  0.005621,  1.983602 )     2.68059754
  WF centre and spread    6  ( -1.184677, -0.002015,  1.994681 )     2.51070585
  WF centre and spread    7  (  0.623139, -1.074866,  3.970456 )     2.83195836
  WF centre and spread    8  (  0.617040, -1.076058,  3.971269 )     2.66655148
  WF centre and spread    9  (  0.595321, -1.026717,  3.975575 )     2.50916214
  Sum of centres and spreads ( -0.000689,  0.001473, 17.879936 )    24.02448639
 
     22    -0.379E-03     0.0292573442       24.0244863876       0.07  <-- CONV
        O_D=      0.0404648 O_OD=      4.6504509 O_TOT=     24.0244864 <-- SPRD
 Delta: O_D= -0.2821948E-03 O_OD= -0.9723143E-04 O_TOT= -0.3794263E-03 <-- DLTA
 ------------------------------------------------------------------------------
 Cycle:     23
  WF centre and spread    1  (  0.621158,  1.079980,  0.006315 )     2.82014750
  WF centre and spread    2  (  0.623283,  1.076459, -0.002480 )     2.67968781
  WF centre and spread    3  (  0.591588,  1.023184, -0.003224 )     2.50692566
  WF centre and spread    4  ( -1.244889, -0.004116,  1.984270 )     2.82141679
  WF centre and spread    5  ( -1.243142,  0.006070,  1.982425 )     2.67836266
  WF centre and spread    6  ( -1.183831, -0.002480,  1.994651 )     2.50852694
  WF centre and spread    7  (  0.623150, -1.075293,  3.971767 )     2.83430983
  WF centre and spread    8  (  0.617739, -1.075696,  3.971190 )     2.66569190
  WF centre and spread    9  (  0.594394, -1.026590,  3.974044 )     2.50902108
  Sum of centres and spreads ( -0.000549,  0.001518, 17.878957 )    24.02409018
 
     23    -0.396E-03     0.0376290451       24.0240901784       0.07  <-- CONV
        O_D=      0.0402424 O_OD=      4.6502771 O_TOT=     24.0240902 <-- SPRD
 Delta: O_D= -0.2223738E-03 O_OD= -0.1738353E-03 O_TOT= -0.3962091E-03 <-- DLTA
 ------------------------------------------------------------------------------
 Cycle:     24
  WF centre and spread    1  (  0.621954,  1.080584,  0.008619 )     2.82139341
  WF centre and spread    2  (  0.622167,  1.076355, -0.003487 )     2.67921675
  WF centre and spread    3  (  0.591621,  1.022399, -0.005034 )     2.50650966
  WF centre and spread    4  ( -1.245215, -0.003666,  1.985197 )     2.82192917
  WF centre and spread    5  ( -1.243411,  0.006508,  1.980927 )     2.67765011
  WF centre and spread    6  ( -1.182847, -0.002926,  1.994367 )     2.50789924
  WF centre and spread    7  (  0.623018, -1.075738,  3.973230 )     2.83466927
  WF centre and spread    8  (  0.618433, -1.075098,  3.971015 )     2.66566445
  WF centre and spread    9  (  0.593289, -1.026503,  3.972101 )     2.50871696
  Sum of centres and spreads ( -0.000990,  0.001914, 17.876935 )    24.02364903
 
     24    -0.441E-03     0.0399288643       24.0236490252       0.07  <-- CONV
        O_D=      0.0400196 O_OD=      4.6500588 O_TOT=     24.0236490 <-- SPRD
 Delta: O_D= -0.2228533E-03 O_OD= -0.2182999E-03 O_TOT= -0.4411532E-03 <-- DLTA
 ------------------------------------------------------------------------------
 Cycle:     25
  WF centre and spread    1  (  0.621887,  1.080645,  0.008620 )     2.81963550
  WF centre and spread    2  (  0.622633,  1.076039, -0.003508 )     2.68036115
  WF centre and spread    3  (  0.591561,  1.022603, -0.004795 )     2.50810959
  WF centre and spread    4  ( -1.245256, -0.003797,  1.985041 )     2.81922359
  WF centre and spread    5  ( -1.243398,  0.006401,  1.980966 )     2.67930731
  WF centre and spread    6  ( -1.182968, -0.002937,  1.994530 )     2.50979176
  WF centre and spread    7  (  0.623052, -1.075821,  3.972938 )     2.83238554
  WF centre and spread    8  (  0.618301, -1.075055,  3.971003 )     2.66597785
  WF centre and spread    9  (  0.593338, -1.026442,  3.972438 )     2.50864105
  Sum of centres and spreads ( -0.000851,  0.001635, 17.877232 )    24.02343335
 
     25    -0.216E-03     0.0288654619       24.0234333538       0.07  <-- CONV
        O_D=      0.0400496 O_OD=      4.6498131 O_TOT=     24.0234334 <-- SPRD
 Delta: O_D=  0.3000431E-04 O_OD= -0.2456758E-03 O_TOT= -0.2156715E-03 <-- DLTA
 ------------------------------------------------------------------------------
 Cycle:     26
  WF centre and spread    1  (  0.621806,  1.080693,  0.008725 )     2.81760755
  WF centre and spread    2  (  0.622726,  1.075927, -0.003512 )     2.68172718
  WF centre and spread    3  (  0.591542,  1.022720, -0.004864 )     2.50991081
  WF centre and spread    4  ( -1.245284, -0.003859,  1.984959 )     2.81623973
  WF centre and spread    5  ( -1.243397,  0.006412,  1.980911 )     2.68125900
  WF centre and spread    6  ( -1.183031, -0.002906,  1.994548 )     2.51186934
  WF centre and spread    7  (  0.623002, -1.075893,  3.972785 )     2.82975445
  WF centre and spread    8  (  0.618239, -1.074939,  3.970939 )     2.66636923
  WF centre and spread    9  (  0.593379, -1.026388,  3.972670 )     2.50856646
  Sum of centres and spreads ( -0.001017,  0.001767, 17.877161 )    24.02330376
 
     26    -0.130E-03     0.0264604494       24.0233037578       0.07  <-- CONV
        O_D=      0.0400407 O_OD=      4.6496924 O_TOT=     24.0233038 <-- SPRD
 Delta: O_D= -0.8863809E-05 O_OD= -0.1207322E-03 O_TOT= -0.1295960E-03 <-- DLTA
 ------------------------------------------------------------------------------
 Cycle:     27
  WF centre and spread    1  (  0.621655,  1.080710,  0.008874 )     2.81551175
  WF centre and spread    2  (  0.623164,  1.075583, -0.003522 )     2.68324741
  WF centre and spread    3  (  0.591429,  1.022883, -0.004736 )     2.51169027
  WF centre and spread    4  ( -1.245246, -0.003957,  1.984824 )     2.81323911
  WF centre and spread    5  ( -1.243393,  0.006749,  1.980756 )     2.68345242
  WF centre and spread    6  ( -1.182948, -0.002977,  1.994752 )     2.51394910
  WF centre and spread    7  (  0.623022, -1.075867,  3.972641 )     2.82702480
  WF centre and spread    8  (  0.618072, -1.074855,  3.970889 )     2.66672040
  WF centre and spread    9  (  0.593473, -1.026246,  3.972954 )     2.50838296
  Sum of centres and spreads ( -0.000772,  0.002023, 17.877433 )    24.02321822
 
     27    -0.855E-04     0.0182700966       24.0232182176       0.07  <-- CONV
        O_D=      0.0400415 O_OD=      4.6496061 O_TOT=     24.0232182 <-- SPRD
 Delta: O_D=  0.7519910E-06 O_OD= -0.8629221E-04 O_TOT= -0.8554022E-04 <-- DLTA
 ------------------------------------------------------------------------------
 Cycle:     28
  WF centre and spread    1  (  0.621503,  1.080690,  0.008977 )     2.81427820
  WF centre and spread    2  (  0.623498,  1.075301, -0.003521 )     2.68434511
  WF centre and spread    3  (  0.591349,  1.022936, -0.004702 )     2.51272962
  WF centre and spread    4  ( -1.245247, -0.004042,  1.984733 )     2.81138505
  WF centre and spread    5  ( -1.243352,  0.006907,  1.980536 )     2.68507768
  WF centre and spread    6  ( -1.182842, -0.003103,  1.994920 )     2.51520835
  WF centre and spread    7  (  0.623018, -1.075838,  3.972478 )     2.82521536
  WF centre and spread    8  (  0.617947, -1.074739,  3.970852 )     2.66680525
  WF centre and spread    9  (  0.593450, -1.026095,  3.973141 )     2.50812336
  Sum of centres and spreads ( -0.000677,  0.002017, 17.877413 )    24.02316798
 
     28    -0.502E-04     0.0125702754       24.0231679780       0.07  <-- CONV
        O_D=      0.0399945 O_OD=      4.6496028 O_TOT=     24.0231680 <-- SPRD
 Delta: O_D= -0.4694667E-04 O_OD= -0.3292868E-05 O_TOT= -0.5023953E-04 <-- DLTA
 ------------------------------------------------------------------------------
 Cycle:     29
  WF centre and spread    1  (  0.621349,  1.080735,  0.008976 )     2.81380006
  WF centre and spread    2  (  0.623688,  1.075105, -0.003526 )     2.68490029
  WF centre and spread    3  (  0.591277,  1.022973, -0.004595 )     2.51308729
  WF centre and spread    4  ( -1.245307, -0.004159,  1.984642 )     2.81061705
  WF centre and spread    5  ( -1.243321,  0.007187,  1.980385 )     2.68591573
  WF centre and spread    6  ( -1.182733, -0.003282,  1.995198 )     2.51572166
  WF centre and spread    7  (  0.623033, -1.075836,  3.972283 )     2.82439417
  WF centre and spread    8  (  0.617820, -1.074696,  3.970838 )     2.66669972
  WF centre and spread    9  (  0.593486, -1.025983,  3.973470 )     2.50800045
  Sum of centres and spreads ( -0.000708,  0.002044, 17.877670 )    24.02313643
 
     29    -0.315E-04     0.0118143667       24.0231364286       0.07  <-- CONV
        O_D=      0.0399430 O_OD=      4.6496227 O_TOT=     24.0231364 <-- SPRD
 Delta: O_D= -0.5146786E-04 O_OD=  0.1991839E-04 O_TOT= -0.3154947E-04 <-- DLTA
 ------------------------------------------------------------------------------
 Cycle:     30
  WF centre and spread    1  (  0.621148,  1.080877,  0.008962 )     2.81365662
  WF centre and spread    2  (  0.624001,  1.074764, -0.003609 )     2.68531729
  WF centre and spread    3  (  0.591171,  1.023007, -0.004469 )     2.51306519
  WF centre and spread    4  ( -1.245494, -0.004393,  1.984500 )     2.81037362
  WF centre and spread    5  ( -1.243297,  0.007640,  1.980116 )     2.68655816
  WF centre and spread    6  ( -1.182525, -0.003585,  1.995658 )     2.51590312
  WF centre and spread    7  (  0.623075, -1.075897,  3.971964 )     2.82402949
  WF centre and spread    8  (  0.617674, -1.074673,  3.970793 )     2.66625167
  WF centre and spread    9  (  0.593562, -1.025867,  3.973877 )     2.50793204
  Sum of centres and spreads ( -0.000685,  0.001873, 17.877793 )    24.02308720
 
     30    -0.492E-04     0.0112682403       24.0230872010       0.07  <-- CONV
        O_D=      0.0398693 O_OD=      4.6496472 O_TOT=     24.0230872 <-- SPRD
 Delta: O_D= -0.7375904E-04 O_OD=  0.2453150E-04 O_TOT= -0.4922755E-04 <-- DLTA
 ------------------------------------------------------------------------------
 Cycle:     31
  WF centre and spread    1  (  0.621161,  1.080959,  0.008967 )     2.81397199
  WF centre and spread    2  (  0.624021,  1.074772, -0.003603 )     2.68502426
  WF centre and spread    3  (  0.591162,  1.023035, -0.004464 )     2.51280380
  WF centre and spread    4  ( -1.245545, -0.004434,  1.984506 )     2.81088528
  WF centre and spread    5  ( -1.243345,  0.007876,  1.980071 )     2.68610212
  WF centre and spread    6  ( -1.182477, -0.003610,  1.995711 )     2.51561041
  WF centre and spread    7  (  0.623089, -1.075912,  3.971994 )     2.82450337
  WF centre and spread    8  (  0.617691, -1.074725,  3.970769 )     2.66618851
  WF centre and spread    9  (  0.593634, -1.025816,  3.973938 )     2.50795624
  Sum of centres and spreads ( -0.000609,  0.002145, 17.877890 )    24.02304597
 
     31    -0.412E-04     0.0151406049       24.0230459742       0.07  <-- CONV
        O_D=      0.0399028 O_OD=      4.6495725 O_TOT=     24.0230460 <-- SPRD
 Delta: O_D=  0.3353647E-04 O_OD= -0.7476330E-04 O_TOT= -0.4122683E-04 <-- DLTA
 ------------------------------------------------------------------------------
 Cycle:     32
  WF centre and spread    1  (  0.621193,  1.081066,  0.008980 )     2.81460517
  WF centre and spread    2  (  0.624045,  1.074793, -0.003657 )     2.68453874
  WF centre and spread    3  (  0.591156,  1.023027, -0.004486 )     2.51232094
  WF centre and spread    4  ( -1.245628, -0.004487,  1.984516 )     2.81180290
  WF centre and spread    5  ( -1.243393,  0.008000,  1.980024 )     2.68533392
  WF centre and spread    6  ( -1.182436, -0.003629,  1.995732 )     2.51504864
  WF centre and spread    7  (  0.623113, -1.075971,  3.972014 )     2.82532721
  WF centre and spread    8  (  0.617741, -1.074808,  3.970745 )     2.66602032
  WF centre and spread    9  (  0.593671, -1.025831,  3.973859 )     2.50802309
  Sum of centres and spreads ( -0.000538,  0.002161, 17.877728 )    24.02302092
 
     32    -0.251E-04     0.0102455623       24.0230209171       0.07  <-- CONV
        O_D=      0.0399319 O_OD=      4.6495183 O_TOT=     24.0230209 <-- SPRD
 Delta: O_D=  0.2910446E-04 O_OD= -0.5416157E-04 O_TOT= -0.2505711E-04 <-- DLTA
 ------------------------------------------------------------------------------
 Cycle:     33
  WF centre and spread    1  (  0.621201,  1.081299,  0.008942 )     2.81605748
  WF centre and spread    2  (  0.624025,  1.074848, -0.003753 )     2.68356114
  WF centre and spread    3  (  0.591128,  1.022978, -0.004451 )     2.51125051
  WF centre and spread    4  ( -1.245828, -0.004635,  1.984545 )     2.81372068
  WF centre and spread    5  ( -1.243456,  0.008379,  1.979941 )     2.68377089
  WF centre and spread    6  ( -1.182324, -0.003756,  1.995934 )     2.51381405
  WF centre and spread    7  (  0.623173, -1.076089,  3.971959 )     2.82695907
  WF centre and spread    8  (  0.617777, -1.074973,  3.970722 )     2.66564613
  WF centre and spread    9  (  0.593792, -1.025846,  3.974009 )     2.50820453
  Sum of centres and spreads ( -0.000512,  0.002205, 17.877848 )    24.02298448
 
     33    -0.364E-04     0.0102959582       24.0229844777       0.08  <-- CONV
        O_D=      0.0399547 O_OD=      4.6494591 O_TOT=     24.0229845 <-- SPRD
 Delta: O_D=  0.2280507E-04 O_OD= -0.5924449E-04 O_TOT= -0.3643941E-04 <-- DLTA
 ------------------------------------------------------------------------------
 Cycle:     34
  WF centre and spread    1  (  0.621157,  1.081584,  0.008950 )     2.81819986
  WF centre and spread    2  (  0.624000,  1.074840, -0.003887 )     2.68228877
  WF centre and spread    3  (  0.591089,  1.022814, -0.004474 )     2.50975998
  WF centre and spread    4  ( -1.246108, -0.004841,  1.984659 )     2.81633637
  WF centre and spread    5  ( -1.243469,  0.008759,  1.979643 )     2.68169533
  WF centre and spread    6  ( -1.182116, -0.003999,  1.996261 )     2.51202704
  WF centre and spread    7  (  0.623247, -1.076235,  3.971894 )     2.82902614
  WF centre and spread    8  (  0.617758, -1.075076,  3.970674 )     2.66520138
  WF centre and spread    9  (  0.593830, -1.025787,  3.974116 )     2.50839683
  Sum of centres and spreads ( -0.000612,  0.002058, 17.877837 )    24.02293170
 
     34    -0.528E-04     0.0103167569       24.0229317012       0.08  <-- CONV
        O_D=      0.0399203 O_OD=      4.6494407 O_TOT=     24.0229317 <-- SPRD
 Delta: O_D= -0.3439383E-04 O_OD= -0.1838259E-04 O_TOT= -0.5277643E-04 <-- DLTA
 ------------------------------------------------------------------------------
 Cycle:     35
  WF centre and spread    1  (  0.620997,  1.081893,  0.009081 )     2.82016432
  WF centre and spread    2  (  0.624318,  1.074563, -0.004082 )     2.68123577
  WF centre and spread    3  (  0.590965,  1.022659, -0.004415 )     2.50842498
  WF centre and spread    4  ( -1.246370, -0.005132,  1.984775 )     2.81855019
  WF centre and spread    5  ( -1.243483,  0.009484,  1.979119 )     2.67997207
  WF centre and spread    6  ( -1.181747, -0.004358,  1.996766 )     2.51042168
  WF centre and spread    7  (  0.623381, -1.076336,  3.971834 )     2.83065823
  WF centre and spread    8  (  0.617623, -1.075151,  3.970585 )     2.66495649
  WF centre and spread    9  (  0.593897, -1.025602,  3.974323 )     2.50848081
  Sum of centres and spreads ( -0.000419,  0.002018, 17.877985 )    24.02286454
 
     35    -0.672E-04     0.0139490611       24.0228645393       0.08  <-- CONV
        O_D=      0.0398738 O_OD=      4.6494200 O_TOT=     24.0228645 <-- SPRD
 Delta: O_D= -0.4652969E-04 O_OD= -0.2063227E-04 O_TOT= -0.6716196E-04 <-- DLTA
 ------------------------------------------------------------------------------
 Cycle:     36
  WF centre and spread    1  (  0.620713,  1.082357,  0.009423 )     2.82200999
  WF centre and spread    2  (  0.624508,  1.074310, -0.004376 )     2.68040231
  WF centre and spread    3  (  0.590813,  1.022377, -0.004559 )     2.50726771
  WF centre and spread    4  ( -1.246744, -0.005532,  1.985043 )     2.82032077
  WF centre and spread    5  ( -1.243520,  0.010630,  1.978222 )     2.67858711
  WF centre and spread    6  ( -1.181195, -0.004851,  1.997456 )     2.50902332
  WF centre and spread    7  (  0.623529, -1.076472,  3.971844 )     2.83172934
  WF centre and spread    8  (  0.617431, -1.075164,  3.970390 )     2.66492361
  WF centre and spread    9  (  0.593950, -1.025364,  3.974511 )     2.50849837
  Sum of centres and spreads ( -0.000515,  0.002291, 17.877955 )    24.02276253
 
     36    -0.102E-03     0.0184621271       24.0227625293       0.08  <-- CONV
        O_D=      0.0397879 O_OD=      4.6494039 O_TOT=     24.0227625 <-- SPRD
 Delta: O_D= -0.8585849E-04 O_OD= -0.1615148E-04 O_TOT= -0.1020100E-03 <-- DLTA
 ------------------------------------------------------------------------------
 Cycle:     37
  WF centre and spread    1  (  0.620693,  1.082395,  0.009467 )     2.82083565
  WF centre and spread    2  (  0.624724,  1.074174, -0.004378 )     2.68120172
  WF centre and spread    3  (  0.590824,  1.022476, -0.004470 )     2.50819551
  WF centre and spread    4  ( -1.246761, -0.005615,  1.985017 )     2.81860712
  WF centre and spread    5  ( -1.243507,  0.010516,  1.978232 )     2.67985962
  WF centre and spread    6  ( -1.181325, -0.004810,  1.997499 )     2.51024991
  WF centre and spread    7  (  0.623562, -1.076509,  3.971739 )     2.83029736
  WF centre and spread    8  (  0.617391, -1.075136,  3.970359 )     2.66499841
  WF centre and spread    9  (  0.593932, -1.025393,  3.974613 )     2.50843435
  Sum of centres and spreads ( -0.000467,  0.002098, 17.878078 )    24.02267966
 
     37    -0.829E-04     0.0182212382       24.0226796572       0.08  <-- CONV
        O_D=      0.0398052 O_OD=      4.6493038 O_TOT=     24.0226797 <-- SPRD
 Delta: O_D=  0.1721419E-04 O_OD= -0.1000863E-03 O_TOT= -0.8287207E-04 <-- DLTA
 ------------------------------------------------------------------------------
 Cycle:     38
  WF centre and spread    1  (  0.620680,  1.082418,  0.009600 )     2.81941607
  WF centre and spread    2  (  0.624679,  1.074182, -0.004373 )     2.68217279
  WF centre and spread    3  (  0.590859,  1.022520, -0.004564 )     2.50928971
  WF centre and spread    4  ( -1.246761, -0.005642,  1.985064 )     2.81661223
  WF centre and spread    5  ( -1.243502,  0.010485,  1.978166 )     2.68142351
  WF centre and spread    6  ( -1.181421, -0.004753,  1.997483 )     2.51166829
  WF centre and spread    7  (  0.623550, -1.076526,  3.971757 )     2.82856367
  WF centre and spread    8  (  0.617391, -1.075061,  3.970297 )     2.66510053
  WF centre and spread    9  (  0.593898, -1.025426,  3.974602 )     2.50838213
  Sum of centres and spreads ( -0.000628,  0.002196, 17.878031 )    24.02262893
 
     38    -0.507E-04     0.0162617579       24.0226289312       0.08  <-- CONV
        O_D=      0.0398132 O_OD=      4.6492451 O_TOT=     24.0226289 <-- SPRD
 Delta: O_D=  0.8026952E-05 O_OD= -0.5875296E-04 O_TOT= -0.5072601E-04 <-- DLTA
 ------------------------------------------------------------------------------
 Cycle:     39
  WF centre and spread    1  (  0.620621,  1.082412,  0.009790 )     2.81785198
  WF centre and spread    2  (  0.624862,  1.074019, -0.004391 )     2.68329385
  WF centre and spread    3  (  0.590842,  1.022589, -0.004573 )     2.51044521
  WF centre and spread    4  ( -1.246704, -0.005691,  1.985113 )     2.81444589
  WF centre and spread    5  ( -1.243498,  0.010633,  1.978001 )     2.68327472
  WF centre and spread    6  ( -1.181433, -0.004743,  1.997525 )     2.51321996
  WF centre and spread    7  (  0.623577, -1.076487,  3.971822 )     2.82663326
  WF centre and spread    8  (  0.617337, -1.074991,  3.970224 )     2.66515454
  WF centre and spread    9  (  0.593887, -1.025389,  3.974598 )     2.50827269
  Sum of centres and spreads ( -0.000508,  0.002352, 17.878110 )    24.02259209
 
     39    -0.368E-04     0.0118489234       24.0225920927       0.08  <-- CONV
        O_D=      0.0398165 O_OD=      4.6492049 O_TOT=     24.0225921 <-- SPRD
 Delta: O_D=  0.3354911E-05 O_OD= -0.4019349E-04 O_TOT= -0.3683858E-04 <-- DLTA
 ------------------------------------------------------------------------------
 Cycle:     40
  WF centre and spread    1  (  0.620558,  1.082380,  0.009974 )     2.81683544
  WF centre and spread    2  (  0.624979,  1.073900, -0.004404 )     2.68417421
  WF centre and spread    3  (  0.590835,  1.022564, -0.004654 )     2.51116817
  WF centre and spread    4  ( -1.246654, -0.005738,  1.985227 )     2.81295237
  WF centre and spread    5  ( -1.243461,  0.010646,  1.977763 )     2.68476615
  WF centre and spread    6  ( -1.181429, -0.004757,  1.997538 )     2.51431435
  WF centre and spread    7  (  0.623592, -1.076438,  3.971892 )     2.82521556
  WF centre and spread    8  (  0.617299, -1.074896,  3.970149 )     2.66505052
  WF centre and spread    9  (  0.593788, -1.025336,  3.974516 )     2.50809040
  Sum of centres and spreads ( -0.000494,  0.002324, 17.878000 )    24.02256718
 
     40    -0.249E-04     0.0084997170       24.0225671753       0.08  <-- CONV
        O_D=      0.0397823 O_OD=      4.6492142 O_TOT=     24.0225672 <-- SPRD
 Delta: O_D= -0.3426591E-04 O_OD=  0.9348605E-05 O_TOT= -0.2491730E-04 <-- DLTA
 ------------------------------------------------------------------------------
 Cycle:     41
  WF centre and spread    1  (  0.620485,  1.082394,  0.010092 )     2.81639439
  WF centre and spread    2  (  0.625019,  1.073832, -0.004426 )     2.68467183
  WF centre and spread    3  (  0.590821,  1.022525, -0.004661 )     2.51142222
  WF centre and spread    4  ( -1.246645, -0.005818,  1.985341 )     2.81220969
  WF centre and spread    5  ( -1.243422,  0.010763,  1.977573 )     2.68564684
  WF centre and spread    6  ( -1.181414, -0.004814,  1.997635 )     2.51487153
  WF centre and spread    7  (  0.623619, -1.076405,  3.971913 )     2.82448252
  WF centre and spread    8  (  0.617240, -1.074849,  3.970090 )     2.66486648
  WF centre and spread    9  (  0.593744, -1.025304,  3.974584 )     2.50798342
  Sum of centres and spreads ( -0.000552,  0.002324, 17.878142 )    24.02254891
 
     41    -0.183E-04     0.0087260446       24.0225489128       0.08  <-- CONV
        O_D=      0.0397478 O_OD=      4.6492304 O_TOT=     24.0225489 <-- SPRD
 Delta: O_D= -0.3447276E-04 O_OD=  0.1621020E-04 O_TOT= -0.1826256E-04 <-- DLTA
 ------------------------------------------------------------------------------
 Cycle:     42
  WF centre and spread    1  (  0.620373,  1.082480,  0.010352 )     2.81623003
  WF centre and spread    2  (  0.625091,  1.073714, -0.004572 )     2.68512546
  WF centre and spread    3  (  0.590814,  1.022401, -0.004759 )     2.51131783
  WF centre and spread    4  ( -1.246676, -0.006025,  1.985653 )     2.81170573
  WF centre and spread    5  ( -1.243360,  0.010929,  1.977161 )     2.68657938
  WF centre and spread    6  ( -1.181394, -0.004902,  1.997754 )     2.51529363
  WF centre and spread    7  (  0.623685, -1.076394,  3.972009 )     2.82401443
  WF centre and spread    8  (  0.617179, -1.074793,  3.969931 )     2.66436240
  WF centre and spread    9  (  0.593662, -1.025330,  3.974532 )     2.50788439
  Sum of centres and spreads ( -0.000627,  0.002080, 17.878060 )    24.02251329
 
     42    -0.356E-04     0.0089042961       24.0225132922       0.08  <-- CONV
        O_D=      0.0396955 O_OD=      4.6492471 O_TOT=     24.0225133 <-- SPRD
 Delta: O_D= -0.5228501E-04 O_OD=  0.1666441E-04 O_TOT= -0.3562059E-04 <-- DLTA
 ------------------------------------------------------------------------------
 Cycle:     43
  WF centre and spread    1  (  0.620378,  1.082540,  0.010359 )     2.81652361
  WF centre and spread    2  (  0.625114,  1.073724, -0.004577 )     2.68482364
  WF centre and spread    3  (  0.590806,  1.022436, -0.004746 )     2.51109064
  WF centre and spread    4  ( -1.246708, -0.006067,  1.985696 )     2.81214256
  WF centre and spread    5  ( -1.243417,  0.011142,  1.977111 )     2.68613093
  WF centre and spread    6  ( -1.181361, -0.004918,  1.997792 )     2.51499916
  WF centre and spread    7  (  0.623698, -1.076401,  3.972059 )     2.82445228
  WF centre and spread    8  (  0.617189, -1.074841,  3.969904 )     2.66439311
  WF centre and spread    9  (  0.593725, -1.025283,  3.974570 )     2.50792313
  Sum of centres and spreads ( -0.000575,  0.002333, 17.878168 )    24.02247907
 
     43    -0.342E-04     0.0140631116       24.0224790691       0.08  <-- CONV
        O_D=      0.0397289 O_OD=      4.6491795 O_TOT=     24.0224791 <-- SPRD
 Delta: O_D=  0.3335785E-04 O_OD= -0.6758089E-04 O_TOT= -0.3422304E-04 <-- DLTA
 ------------------------------------------------------------------------------
 Cycle:     44
  WF centre and spread    1  (  0.620391,  1.082616,  0.010376 )     2.81709560
  WF centre and spread    2  (  0.625151,  1.073747, -0.004642 )     2.68434805
  WF centre and spread    3  (  0.590807,  1.022438, -0.004770 )     2.51067798
  WF centre and spread    4  ( -1.246754, -0.006123,  1.985762 )     2.81291563
  WF centre and spread    5  ( -1.243473,  0.011239,  1.977056 )     2.68538874
  WF centre and spread    6  ( -1.181346, -0.004913,  1.997769 )     2.51445462
  WF centre and spread    7  (  0.623718, -1.076442,  3.972110 )     2.82518988
  WF centre and spread    8  (  0.617229, -1.074913,  3.969869 )     2.66439200
  WF centre and spread    9  (  0.593759, -1.025303,  3.974491 )     2.50799736
  Sum of centres and spreads ( -0.000519,  0.002346, 17.878021 )    24.02245987
 
     44    -0.192E-04     0.0090823296       24.0224598696       0.09  <-- CONV
        O_D=      0.0397601 O_OD=      4.6491290 O_TOT=     24.0224599 <-- SPRD
 Delta: O_D=  0.3127345E-04 O_OD= -0.5047298E-04 O_TOT= -0.1919952E-04 <-- DLTA
 ------------------------------------------------------------------------------
 Cycle:     45
  WF centre and spread    1  (  0.620372,  1.082787,  0.010356 )     2.81838513
  WF centre and spread    2  (  0.625150,  1.073822, -0.004760 )     2.68341617
  WF centre and spread    3  (  0.590790,  1.022408, -0.004717 )     2.50976218
  WF centre and spread    4  ( -1.246866, -0.006281,  1.985914 )     2.81452940
  WF centre and spread    5  ( -1.243547,  0.011552,  1.976959 )     2.68389859
  WF centre and spread    6  ( -1.181299, -0.004977,  1.997867 )     2.51327978
  WF centre and spread    7  (  0.623782, -1.076508,  3.972135 )     2.82662421
  WF centre and spread    8  (  0.617238, -1.075069,  3.969819 )     2.66436460
  WF centre and spread    9  (  0.593863, -1.025345,  3.974588 )     2.50817279
  Sum of centres and spreads ( -0.000516,  0.002388, 17.878161 )    24.02243285
 
     45    -0.270E-04     0.0089360775       24.0224328465       0.09  <-- CONV
        O_D=      0.0397972 O_OD=      4.6490650 O_TOT=     24.0224328 <-- SPRD
 Delta: O_D=  0.3704884E-04 O_OD= -0.6407195E-04 O_TOT= -0.2702311E-04 <-- DLTA
 ------------------------------------------------------------------------------
 Cycle:     46
  WF centre and spread    1  (  0.620291,  1.082988,  0.010385 )     2.82031490
  WF centre and spread    2  (  0.625150,  1.073866, -0.004946 )     2.68219347
  WF centre and spread    3  (  0.590767,  1.022276, -0.004709 )     2.50843270
  WF centre and spread    4  ( -1.246994, -0.006538,  1.986257 )     2.81679509
  WF centre and spread    5  ( -1.243579,  0.011882,  1.976635 )     2.68190362
  WF centre and spread    6  ( -1.181209, -0.005114,  1.998010 )     2.51154171
  WF centre and spread    7  (  0.623877, -1.076560,  3.972215 )     2.82845695
  WF centre and spread    8  (  0.617187, -1.075200,  3.969705 )     2.66438958
  WF centre and spread    9  (  0.593901, -1.025348,  3.974647 )     2.50836524
  Sum of centres and spreads ( -0.000608,  0.002252, 17.878199 )    24.02239327
 
     46    -0.396E-04     0.0088052629       24.0223932698       0.09  <-- CONV
        O_D=      0.0397929 O_OD=      4.6490297 O_TOT=     24.0223933 <-- SPRD
 Delta: O_D= -0.4313885E-05 O_OD= -0.3526280E-04 O_TOT= -0.3957668E-04 <-- DLTA
 ------------------------------------------------------------------------------
 Cycle:     47
  WF centre and spread    1  (  0.620067,  1.083228,  0.010542 )     2.82237108
  WF centre and spread    2  (  0.625491,  1.073651, -0.005261 )     2.68096822
  WF centre and spread    3  (  0.590658,  1.022163, -0.004582 )     2.50698427
  WF centre and spread    4  ( -1.247080, -0.006972,  1.986757 )     2.81908455
  WF centre and spread    5  ( -1.243631,  0.012649,  1.975986 )     2.67998752
  WF centre and spread    6  ( -1.180991, -0.005380,  1.998308 )     2.50966436
  WF centre and spread    7  (  0.624066, -1.076537,  3.972382 )     2.83018827
  WF centre and spread    8  (  0.617002, -1.075369,  3.969492 )     2.66457660
  WF centre and spread    9  (  0.593983, -1.025241,  3.974780 )     2.50851035
  Sum of centres and spreads ( -0.000436,  0.002193, 17.878405 )    24.02233523
 
     47    -0.580E-04     0.0126008915       24.0223352301       0.09  <-- CONV
        O_D=      0.0397784 O_OD=      4.6489862 O_TOT=     24.0223352 <-- SPRD
 Delta: O_D= -0.1453102E-04 O_OD= -0.4350873E-04 O_TOT= -0.5803976E-04 <-- DLTA
 ------------------------------------------------------------------------------
 Cycle:     48
  WF centre and spread    1  (  0.619565,  1.083701,  0.011050 )     2.82507574
  WF centre and spread    2  (  0.625881,  1.073386, -0.005903 )     2.67948234
  WF centre and spread    3  (  0.590469,  1.021907, -0.004595 )     2.50503905
  WF centre and spread    4  ( -1.247217, -0.007832,  1.987907 )     2.82180959
  WF centre and spread    5  ( -1.243770,  0.014352,  1.974486 )     2.67786753
  WF centre and spread    6  ( -1.180560, -0.005892,  1.998879 )     2.50717810
  WF centre and spread    7  (  0.624403, -1.076437,  3.972871 )     2.83201172
  WF centre and spread    8  (  0.616631, -1.075626,  3.968956 )     2.66510207
  WF centre and spread    9  (  0.594113, -1.025054,  3.974926 )     2.50864981
  Sum of centres and spreads ( -0.000485,  0.002505, 17.878577 )    24.02221594
 
     48    -0.119E-03     0.0178629311       24.0222159438       0.09  <-- CONV
        O_D=      0.0397465 O_OD=      4.6488987 O_TOT=     24.0222159 <-- SPRD
 Delta: O_D= -0.3180929E-04 O_OD= -0.8747694E-04 O_TOT= -0.1192862E-03 <-- DLTA
 ------------------------------------------------------------------------------
 Cycle:     49
  WF centre and spread    1  (  0.619536,  1.083752,  0.011085 )     2.82358129
  WF centre and spread    2  (  0.626160,  1.073219, -0.005904 )     2.68053387
  WF centre and spread    3  (  0.590479,  1.022044, -0.004447 )     2.50607472
  WF centre and spread    4  ( -1.247238, -0.007958,  1.987860 )     2.81978968
  WF centre and spread    5  ( -1.243752,  0.014266,  1.974486 )     2.67962627
  WF centre and spread    6  ( -1.180739, -0.005856,  1.998962 )     2.50871801
  WF centre and spread    7  (  0.624458, -1.076460,  3.972722 )     2.83035799
  WF centre and spread    8  (  0.616561, -1.075619,  3.968896 )     2.66491470
  WF centre and spread    9  (  0.594110, -1.025093,  3.975088 )     2.50849700
  Sum of centres and spreads ( -0.000425,  0.002293, 17.878748 )    24.02209353
 
     49    -0.122E-03     0.0223860126       24.0220935301       0.09  <-- CONV
        O_D=      0.0397764 O_OD=      4.6487465 O_TOT=     24.0220935 <-- SPRD
 Delta: O_D=  0.2983096E-04 O_OD= -0.1522447E-03 O_TOT= -0.1224138E-03 <-- DLTA
 ------------------------------------------------------------------------------
 Cycle:     50
  WF centre and spread    1  (  0.619513,  1.083783,  0.011225 )     2.82172059
  WF centre and spread    2  (  0.626142,  1.073210, -0.005897 )     2.68184378
  WF centre and spread    3  (  0.590505,  1.022130, -0.004506 )     2.50733537
  WF centre and spread    4  ( -1.247236, -0.008024,  1.987900 )     2.81735569
  WF centre and spread    5  ( -1.243746,  0.014292,  1.974386 )     2.68185036
  WF centre and spread    6  ( -1.180883, -0.005816,  1.999008 )     2.51056446
  WF centre and spread    7  (  0.624464, -1.076451,  3.972721 )     2.82828641
  WF centre and spread    8  (  0.616524, -1.075570,  3.968792 )     2.66469829
  WF centre and spread    9  (  0.594100, -1.025138,  3.975122 )     2.50836194
  Sum of centres and spreads ( -0.000616,  0.002416, 17.878749 )    24.02201689
 
     50    -0.766E-04     0.0198017073       24.0220168898       0.09  <-- CONV
        O_D=      0.0397931 O_OD=      4.6486531 O_TOT=     24.0220169 <-- SPRD
 Delta: O_D=  0.1674933E-04 O_OD= -0.9338962E-04 O_TOT= -0.7664029E-04 <-- DLTA
 ------------------------------------------------------------------------------
 Cycle:     51
  WF centre and spread    1  (  0.619429,  1.083772,  0.011430 )     2.81961528
  WF centre and spread    2  (  0.626426,  1.072961, -0.005930 )     2.68339568
  WF centre and spread    3  (  0.590451,  1.022271, -0.004436 )     2.50869492
  WF centre and spread    4  ( -1.247158, -0.008136,  1.987935 )     2.81463436
  WF centre and spread    5  ( -1.243753,  0.014568,  1.974159 )     2.68452308
  WF centre and spread    6  ( -1.180924, -0.005840,  1.999118 )     2.51264366
  WF centre and spread    7  (  0.624523, -1.076366,  3.972779 )     2.82591288
  WF centre and spread    8  (  0.616412, -1.075538,  3.968660 )     2.66436795
  WF centre and spread    9  (  0.594131, -1.025084,  3.975180 )     2.50817133
  Sum of centres and spreads ( -0.000463,  0.002609, 17.878893 )    24.02195915
 
     51    -0.577E-04     0.0147244376       24.0219591506       0.09  <-- CONV
        O_D=      0.0398032 O_OD=      4.6485853 O_TOT=     24.0219592 <-- SPRD
 Delta: O_D=  0.1004996E-04 O_OD= -0.6778916E-04 O_TOT= -0.5773920E-04 <-- DLTA
 ------------------------------------------------------------------------------
 Cycle:     52
  WF centre and spread    1  (  0.619329,  1.083726,  0.011617 )     2.81816485
  WF centre and spread    2  (  0.626646,  1.072754, -0.005964 )     2.68468280
  WF centre and spread    3  (  0.590395,  1.022295, -0.004427 )     2.50955438
  WF centre and spread    4  ( -1.247072, -0.008253,  1.988047 )     2.81268982
  WF centre and spread    5  ( -1.243718,  0.014686,  1.973837 )     2.68672676
  WF centre and spread    6  ( -1.180938, -0.005892,  1.999207 )     2.51417253
  WF centre and spread    7  (  0.624582, -1.076252,  3.972852 )     2.82411298
  WF centre and spread    8  (  0.616289, -1.075483,  3.968518 )     2.66391952
  WF centre and spread    9  (  0.594052, -1.024998,  3.975158 )     2.50789463
  Sum of centres and spreads ( -0.000434,  0.002583, 17.878843 )    24.02191828
 
     52    -0.409E-04     0.0107790526       24.0219182775       0.09  <-- CONV
        O_D=      0.0397678 O_OD=      4.6485798 O_TOT=     24.0219183 <-- SPRD
 Delta: O_D= -0.3542106E-04 O_OD= -0.5452045E-05 O_TOT= -0.4087311E-04 <-- DLTA
 ------------------------------------------------------------------------------
 Cycle:     53
  WF centre and spread    1  (  0.619213,  1.083737,  0.011721 )     2.81744155
  WF centre and spread    2  (  0.626779,  1.072614, -0.006016 )     2.68548835
  WF centre and spread    3  (  0.590328,  1.022298, -0.004314 )     2.50985880
  WF centre and spread    4  ( -1.247029, -0.008420,  1.988176 )     2.81163293
  WF centre and spread    5  ( -1.243678,  0.014929,  1.973572 )     2.68812431
[...]
 
    985    -0.649E-08     0.0002114635       23.9429505586       1.11  <-- CONV
        O_D=      0.0616859 O_OD=      4.5476940 O_TOT=     23.9429506 <-- SPRD
 Delta: O_D=  0.3553144E-07 O_OD= -0.4202143E-07 O_TOT= -0.6489987E-08 <-- DLTA
 ------------------------------------------------------------------------------
 Cycle:    986
  WF centre and spread    1  (  0.578159,  1.122927,  0.062709 )     2.78976984
  WF centre and spread    2  (  0.684116,  1.054358, -0.067727 )     2.77353785
  WF centre and spread    3  (  0.579485,  1.015011,  0.013506 )     2.41790827
  WF centre and spread    4  ( -1.257304, -0.061773,  2.051170 )     2.78359114
  WF centre and spread    5  ( -1.254153,  0.065283,  1.915898 )     2.78116949
  WF centre and spread    6  ( -1.172299, -0.004239,  2.000360 )     2.41814008
  WF centre and spread    7  (  0.677031, -1.059040,  4.038834 )     2.78673684
  WF centre and spread    8  (  0.574082, -1.116735,  3.903323 )     2.77401052
  WF centre and spread    9  (  0.590586, -1.015168,  3.981557 )     2.41808652
  Sum of centres and spreads ( -0.000296,  0.000626, 17.899629 )    23.94295055
 
    986    -0.733E-08     0.0001495146       23.9429505513       1.11  <-- CONV
        O_D=      0.0616859 O_OD=      4.5476939 O_TOT=     23.9429506 <-- SPRD
 Delta: O_D=  0.6229515E-07 O_OD= -0.6962406E-07 O_TOT= -0.7328907E-08 <-- DLTA
 ------------------------------------------------------------------------------
 Cycle:    987
  WF centre and spread    1  (  0.578158,  1.122926,  0.062712 )     2.78974957
  WF centre and spread    2  (  0.684116,  1.054359, -0.067727 )     2.77354296
  WF centre and spread    3  (  0.579485,  1.015012,  0.013505 )     2.41792251
  WF centre and spread    4  ( -1.257303, -0.061773,  2.051169 )     2.78359566
  WF centre and spread    5  ( -1.254153,  0.065283,  1.915897 )     2.78116424
  WF centre and spread    6  ( -1.172300, -0.004239,  2.000360 )     2.41817775
  WF centre and spread    7  (  0.677031, -1.059039,  4.038834 )     2.78672796
  WF centre and spread    8  (  0.574083, -1.116734,  3.903321 )     2.77399266
  WF centre and spread    9  (  0.590586, -1.015167,  3.981555 )     2.41807724
  Sum of centres and spreads ( -0.000296,  0.000627, 17.899625 )    23.94295055
 
    987    -0.406E-08     0.0001265491       23.9429505472       1.11  <-- CONV
        O_D=      0.0616857 O_OD=      4.5476941 O_TOT=     23.9429505 <-- SPRD
 Delta: O_D= -0.1937155E-06 O_OD=  0.1896510E-06 O_TOT= -0.4064560E-08 <-- DLTA
 ------------------------------------------------------------------------------
 Cycle:    988
  WF centre and spread    1  (  0.578158,  1.122925,  0.062714 )     2.78973153
  WF centre and spread    2  (  0.684117,  1.054359, -0.067726 )     2.77354758
  WF centre and spread    3  (  0.579486,  1.015012,  0.013503 )     2.41793551
  WF centre and spread    4  ( -1.257303, -0.061773,  2.051168 )     2.78359959
  WF centre and spread    5  ( -1.254153,  0.065283,  1.915897 )     2.78115965
  WF centre and spread    6  ( -1.172300, -0.004239,  2.000359 )     2.41821148
  WF centre and spread    7  (  0.677031, -1.059039,  4.038835 )     2.78671931
  WF centre and spread    8  (  0.574083, -1.116733,  3.903319 )     2.77397688
  WF centre and spread    9  (  0.590587, -1.015167,  3.981554 )     2.41806902
  Sum of centres and spreads ( -0.000296,  0.000628, 17.899622 )    23.94295054
 
    988    -0.333E-08     0.0001275117       23.9429505439       1.11  <-- CONV
        O_D=      0.0616853 O_OD=      4.5476945 O_TOT=     23.9429505 <-- SPRD
 Delta: O_D= -0.4311077E-06 O_OD=  0.4277761E-06 O_TOT= -0.3331589E-08 <-- DLTA
 ------------------------------------------------------------------------------
 Cycle:    989
  WF centre and spread    1  (  0.578158,  1.122925,  0.062715 )     2.78971947
  WF centre and spread    2  (  0.684116,  1.054359, -0.067726 )     2.77355064
  WF centre and spread    3  (  0.579487,  1.015012,  0.013502 )     2.41794422
  WF centre and spread    4  ( -1.257303, -0.061773,  2.051168 )     2.78360264
  WF centre and spread    5  ( -1.254153,  0.065282,  1.915897 )     2.78115667
  WF centre and spread    6  ( -1.172301, -0.004239,  2.000358 )     2.41823396
  WF centre and spread    7  (  0.677031, -1.059039,  4.038836 )     2.78671290
  WF centre and spread    8  (  0.574083, -1.116732,  3.903317 )     2.77396680
  WF centre and spread    9  (  0.590585, -1.015168,  3.981553 )     2.41806325
  Sum of centres and spreads ( -0.000297,  0.000627, 17.899621 )    23.94295054
 
    989    -0.273E-08     0.0001005355       23.9429505411       1.11  <-- CONV
        O_D=      0.0616847 O_OD=      4.5476952 O_TOT=     23.9429505 <-- SPRD
 Delta: O_D= -0.6075552E-06 O_OD=  0.6048246E-06 O_TOT= -0.2730612E-08 <-- DLTA
 ------------------------------------------------------------------------------
 Cycle:    990
  WF centre and spread    1  (  0.578158,  1.122924,  0.062716 )     2.78971548
  WF centre and spread    2  (  0.684116,  1.054359, -0.067725 )     2.77355200
  WF centre and spread    3  (  0.579488,  1.015012,  0.013500 )     2.41794655
  WF centre and spread    4  ( -1.257303, -0.061774,  2.051169 )     2.78360287
  WF centre and spread    5  ( -1.254154,  0.065281,  1.915897 )     2.78115623
  WF centre and spread    6  ( -1.172301, -0.004238,  2.000357 )     2.41824000
  WF centre and spread    7  (  0.677030, -1.059039,  4.038837 )     2.78671040
  WF centre and spread    8  (  0.574084, -1.116732,  3.903316 )     2.77396494
  WF centre and spread    9  (  0.590585, -1.015168,  3.981552 )     2.41806206
  Sum of centres and spreads ( -0.000297,  0.000626, 17.899619 )    23.94295054
 
    990    -0.235E-08     0.0000849229       23.9429505388       1.11  <-- CONV
        O_D=      0.0616842 O_OD=      4.5476957 O_TOT=     23.9429505 <-- SPRD
 Delta: O_D= -0.5247018E-06 O_OD=  0.5223516E-06 O_TOT= -0.2350117E-08 <-- DLTA
 ------------------------------------------------------------------------------
 Cycle:    991
  WF centre and spread    1  (  0.578158,  1.122924,  0.062716 )     2.78971834
  WF centre and spread    2  (  0.684116,  1.054359, -0.067725 )     2.77355150
  WF centre and spread    3  (  0.579487,  1.015012,  0.013499 )     2.41794421
  WF centre and spread    4  ( -1.257303, -0.061773,  2.051169 )     2.78360154
  WF centre and spread    5  ( -1.254154,  0.065281,  1.915897 )     2.78115731
  WF centre and spread    6  ( -1.172301, -0.004238,  2.000356 )     2.41823405
  WF centre and spread    7  (  0.677030, -1.059038,  4.038836 )     2.78671179
  WF centre and spread    8  (  0.574084, -1.116732,  3.903317 )     2.77396791
  WF centre and spread    9  (  0.590585, -1.015168,  3.981552 )     2.41806390
  Sum of centres and spreads ( -0.000297,  0.000627, 17.899617 )    23.94295054
 
    991    -0.235E-08     0.0001353085       23.9429505364       1.11  <-- CONV
        O_D=      0.0616843 O_OD=      4.5476956 O_TOT=     23.9429505 <-- SPRD
 Delta: O_D=  0.1188473E-06 O_OD= -0.1211929E-06 O_TOT= -0.2345633E-08 <-- DLTA
 ------------------------------------------------------------------------------
 Cycle:    992
  WF centre and spread    1  (  0.578157,  1.122924,  0.062715 )     2.78972915
  WF centre and spread    2  (  0.684116,  1.054359, -0.067726 )     2.77354947
  WF centre and spread    3  (  0.579488,  1.015012,  0.013498 )     2.41793544
  WF centre and spread    4  ( -1.257302, -0.061773,  2.051168 )     2.78359730
  WF centre and spread    5  ( -1.254154,  0.065281,  1.915898 )     2.78116101
  WF centre and spread    6  ( -1.172300, -0.004237,  2.000354 )     2.41821161
  WF centre and spread    7  (  0.677030, -1.059038,  4.038836 )     2.78671693
  WF centre and spread    8  (  0.574084, -1.116732,  3.903319 )     2.77397932
  WF centre and spread    9  (  0.590586, -1.015168,  3.981550 )     2.41807029
  Sum of centres and spreads ( -0.000296,  0.000628, 17.899612 )    23.94295053
 
    992    -0.273E-08     0.0000848138       23.9429505337       1.12  <-- CONV
        O_D=      0.0616844 O_OD=      4.5476954 O_TOT=     23.9429505 <-- SPRD
 Delta: O_D=  0.1409174E-06 O_OD= -0.1436425E-06 O_TOT= -0.2725081E-08 <-- DLTA
 ------------------------------------------------------------------------------
 Cycle:    993
  WF centre and spread    1  (  0.578157,  1.122924,  0.062714 )     2.78974568
  WF centre and spread    2  (  0.684115,  1.054360, -0.067726 )     2.77354627
  WF centre and spread    3  (  0.579488,  1.015012,  0.013496 )     2.41792240
  WF centre and spread    4  ( -1.257302, -0.061773,  2.051170 )     2.78359213
  WF centre and spread    5  ( -1.254154,  0.065281,  1.915899 )     2.78116647
  WF centre and spread    6  ( -1.172300, -0.004236,  2.000351 )     2.41817792
  WF centre and spread    7  (  0.677030, -1.059038,  4.038836 )     2.78672404
  WF centre and spread    8  (  0.574085, -1.116732,  3.903320 )     2.77399674
  WF centre and spread    9  (  0.590585, -1.015169,  3.981549 )     2.41807888
  Sum of centres and spreads ( -0.000296,  0.000627, 17.899609 )    23.94295053
 
    993    -0.331E-08     0.0001003579       23.9429505304       1.12  <-- CONV
        O_D=      0.0616843 O_OD=      4.5476955 O_TOT=     23.9429505 <-- SPRD
 Delta: O_D= -0.1331985E-06 O_OD=  0.1298840E-06 O_TOT= -0.3314458E-08 <-- DLTA
 ------------------------------------------------------------------------------
 Cycle:    994
  WF centre and spread    1  (  0.578157,  1.122924,  0.062713 )     2.78976409
  WF centre and spread    2  (  0.684114,  1.054360, -0.067726 )     2.77354311
  WF centre and spread    3  (  0.579490,  1.015012,  0.013493 )     2.41790814
  WF centre and spread    4  ( -1.257302, -0.061774,  2.051171 )     2.78358630
  WF centre and spread    5  ( -1.254155,  0.065280,  1.915900 )     2.78117276
  WF centre and spread    6  ( -1.172299, -0.004235,  2.000348 )     2.41814034
  WF centre and spread    7  (  0.677029, -1.059038,  4.038836 )     2.78673101
  WF centre and spread    8  (  0.574087, -1.116732,  3.903322 )     2.77401657
  WF centre and spread    9  (  0.590584, -1.015171,  3.981548 )     2.41808820
  Sum of centres and spreads ( -0.000296,  0.000626, 17.899605 )    23.94295053
 
    994    -0.403E-08     0.0001270938       23.9429505264       1.12  <-- CONV
        O_D=      0.0616838 O_OD=      4.5476960 O_TOT=     23.9429505 <-- SPRD
 Delta: O_D= -0.4919821E-06 O_OD=  0.4879517E-06 O_TOT= -0.4030468E-08 <-- DLTA
 ------------------------------------------------------------------------------
 Cycle:    995
  WF centre and spread    1  (  0.578157,  1.122924,  0.062712 )     2.78978593
  WF centre and spread    2  (  0.684112,  1.054360, -0.067727 )     2.77354132
  WF centre and spread    3  (  0.579492,  1.015011,  0.013486 )     2.41789200
  WF centre and spread    4  ( -1.257300, -0.061773,  2.051172 )     2.78357700
  WF centre and spread    5  ( -1.254156,  0.065279,  1.915902 )     2.78118178
  WF centre and spread    6  ( -1.172298, -0.004232,  2.000341 )     2.41809506
  WF centre and spread    7  (  0.677029, -1.059038,  4.038836 )     2.78673614
  WF centre and spread    8  (  0.574089, -1.116731,  3.903324 )     2.77404136
  WF centre and spread    9  (  0.590583, -1.015172,  3.981543 )     2.41809993
  Sum of centres and spreads ( -0.000293,  0.000627, 17.899589 )    23.94295052
 
    995    -0.723E-08     0.0001259483       23.9429505191       1.12  <-- CONV
        O_D=      0.0616825 O_OD=      4.5476973 O_TOT=     23.9429505 <-- SPRD
 Delta: O_D= -0.1296519E-05 O_OD=  0.1289287E-05 O_TOT= -0.7231773E-08 <-- DLTA
 ------------------------------------------------------------------------------
 Cycle:    996
  WF centre and spread    1  (  0.578156,  1.122922,  0.062713 )     2.78979117
  WF centre and spread    2  (  0.684111,  1.054361, -0.067726 )     2.77354307
  WF centre and spread    3  (  0.579494,  1.015011,  0.013479 )     2.41788693
  WF centre and spread    4  ( -1.257299, -0.061773,  2.051172 )     2.78357263
  WF centre and spread    5  ( -1.254158,  0.065277,  1.915904 )     2.78118590
  WF centre and spread    6  ( -1.172298, -0.004230,  2.000334 )     2.41808048
  WF centre and spread    7  (  0.677028, -1.059037,  4.038837 )     2.78673556
  WF centre and spread    8  (  0.574091, -1.116730,  3.903324 )     2.77405128
  WF centre and spread    9  (  0.590583, -1.015174,  3.981538 )     2.41810349
  Sum of centres and spreads ( -0.000292,  0.000628, 17.899574 )    23.94295051
 
    996    -0.639E-08     0.0001484259       23.9429505127       1.12  <-- CONV
        O_D=      0.0616814 O_OD=      4.5476984 O_TOT=     23.9429505 <-- SPRD
 Delta: O_D= -0.1131105E-05 O_OD=  0.1124718E-05 O_TOT= -0.6386838E-08 <-- DLTA
 ------------------------------------------------------------------------------
 Cycle:    997
  WF centre and spread    1  (  0.578155,  1.122922,  0.062714 )     2.78978317
  WF centre and spread    2  (  0.684111,  1.054361, -0.067726 )     2.77354476
  WF centre and spread    3  (  0.579494,  1.015011,  0.013479 )     2.41789202
  WF centre and spread    4  ( -1.257299, -0.061773,  2.051172 )     2.78357530
  WF centre and spread    5  ( -1.254157,  0.065277,  1.915904 )     2.78118346
  WF centre and spread    6  ( -1.172298, -0.004230,  2.000334 )     2.41809483
  WF centre and spread    7  (  0.677028, -1.059037,  4.038837 )     2.78673307
  WF centre and spread    8  (  0.574091, -1.116730,  3.903324 )     2.77404459
  WF centre and spread    9  (  0.590582, -1.015174,  3.981538 )     2.41809932
  Sum of centres and spreads ( -0.000293,  0.000627, 17.899576 )    23.94295051
 
    997    -0.636E-08     0.0002093757       23.9429505064       1.12  <-- CONV
        O_D=      0.0616814 O_OD=      4.5476984 O_TOT=     23.9429505 <-- SPRD
 Delta: O_D=  0.3494624E-07 O_OD= -0.4130726E-07 O_TOT= -0.6361017E-08 <-- DLTA
 ------------------------------------------------------------------------------
 Cycle:    998
  WF centre and spread    1  (  0.578154,  1.122920,  0.062716 )     2.78975826
  WF centre and spread    2  (  0.684111,  1.054361, -0.067726 )     2.77355035
  WF centre and spread    3  (  0.579495,  1.015012,  0.013479 )     2.41790807
  WF centre and spread    4  ( -1.257300, -0.061774,  2.051173 )     2.78358255
  WF centre and spread    5  ( -1.254157,  0.065276,  1.915903 )     2.78117640
  WF centre and spread    6  ( -1.172299, -0.004230,  2.000334 )     2.41813975
  WF centre and spread    7  (  0.677027, -1.059037,  4.038839 )     2.78672454
  WF centre and spread    8  (  0.574091, -1.116729,  3.903322 )     2.77402352
  WF centre and spread    9  (  0.590581, -1.015174,  3.981538 )     2.41808707
  Sum of centres and spreads ( -0.000296,  0.000626, 17.899578 )    23.94295050
 
    998    -0.718E-08     0.0001479967       23.9429504992       1.12  <-- CONV
        O_D=      0.0616815 O_OD=      4.5476983 O_TOT=     23.9429505 <-- SPRD
 Delta: O_D=  0.6135694E-07 O_OD= -0.6853896E-07 O_TOT= -0.7182017E-08 <-- DLTA
 ------------------------------------------------------------------------------
 Cycle:    999
  WF centre and spread    1  (  0.578154,  1.122919,  0.062718 )     2.78973820
  WF centre and spread    2  (  0.684111,  1.054362, -0.067725 )     2.77355541
  WF centre and spread    3  (  0.579495,  1.015012,  0.013478 )     2.41792216
  WF centre and spread    4  ( -1.257299, -0.061774,  2.051172 )     2.78358702
  WF centre and spread    5  ( -1.254157,  0.065276,  1.915903 )     2.78117121
  WF centre and spread    6  ( -1.172300, -0.004230,  2.000333 )     2.41817704
  WF centre and spread    7  (  0.677027, -1.059037,  4.038839 )     2.78671575
  WF centre and spread    8  (  0.574091, -1.116728,  3.903320 )     2.77400584
  WF centre and spread    9  (  0.590582, -1.015174,  3.981537 )     2.41807787
  Sum of centres and spreads ( -0.000296,  0.000628, 17.899574 )    23.94295050
 
    999    -0.399E-08     0.0001252639       23.9429504952       1.12  <-- CONV
        O_D=      0.0616813 O_OD=      4.5476985 O_TOT=     23.9429505 <-- SPRD
 Delta: O_D= -0.1915548E-06 O_OD=  0.1875694E-06 O_TOT= -0.3985402E-08 <-- DLTA
 ------------------------------------------------------------------------------
 Cycle:   1000
  WF centre and spread    1  (  0.578154,  1.122918,  0.062720 )     2.78972034
  WF centre and spread    2  (  0.684111,  1.054362, -0.067725 )     2.77355999
  WF centre and spread    3  (  0.579496,  1.015012,  0.013476 )     2.41793502
  WF centre and spread    4  ( -1.257299, -0.061774,  2.051171 )     2.78359092
  WF centre and spread    5  ( -1.254157,  0.065276,  1.915902 )     2.78116667
  WF centre and spread    6  ( -1.172300, -0.004230,  2.000333 )     2.41821043
  WF centre and spread    7  (  0.677026, -1.059036,  4.038840 )     2.78670718
  WF centre and spread    8  (  0.574092, -1.116727,  3.903318 )     2.77399021
  WF centre and spread    9  (  0.590582, -1.015173,  3.981535 )     2.41806973
  Sum of centres and spreads ( -0.000296,  0.000628, 17.899570 )    23.94295049
 
   1000    -0.327E-08     0.0001262016       23.9429504920       1.12  <-- CONV
        O_D=      0.0616809 O_OD=      4.5476989 O_TOT=     23.9429505 <-- SPRD
 Delta: O_D= -0.4265127E-06 O_OD=  0.4232458E-06 O_TOT= -0.3266859E-08 <-- DLTA
 ------------------------------------------------------------------------------

 Writing checkpoint file Te.chk... done

 Final State
  WF centre and spread    1  (  0.578154,  1.122918,  0.062720 )     2.78972034
  WF centre and spread    2  (  0.684111,  1.054362, -0.067725 )     2.77355999
  WF centre and spread    3  (  0.579496,  1.015012,  0.013476 )     2.41793502
  WF centre and spread    4  ( -1.257299, -0.061774,  2.051171 )     2.78359092
  WF centre and spread    5  ( -1.254157,  0.065276,  1.915902 )     2.78116667
  WF centre and spread    6  ( -1.172300, -0.004230,  2.000333 )     2.41821043
  WF centre and spread    7  (  0.677026, -1.059036,  4.038840 )     2.78670718
  WF centre and spread    8  (  0.574092, -1.116727,  3.903318 )     2.77399021
  WF centre and spread    9  (  0.590582, -1.015173,  3.981535 )     2.41806973
  Sum of centres and spreads ( -0.000296,  0.000628, 17.899570 )    23.94295049
 
         Spreads (Ang^2)       Omega I      =    19.333570693
        ================       Omega D      =     0.061680854
                               Omega OD     =     4.547698945
    Final Spread (Ang^2)       Omega Total  =    23.942950492
 ------------------------------------------------------------------------------
 Time for wannierise            0.796 (sec)

 Writing checkpoint file Te.chk... done

 *---------------------------------------------------------------------------*
 |                               PLOTTING                                    |
 *---------------------------------------------------------------------------*
 
 
 Calculating interpolated band-structure
 
 Time to calculate interpolated band structure       0.088 (sec)
 
 Time for plotting              0.088 (sec)
 Total Execution Time           0.908 (sec)

 *===========================================================================*
 |                             TIMING INFORMATION                            |
 *===========================================================================*
 |    Tag                                                Ncalls      Time (s)|
 |---------------------------------------------------------------------------|
 |kmesh: get                                        :         1         0.008|
 |overlap: read                                     :         1         0.008|
 |dis: main                                         :         1         0.000|
 |wann: main                                        :         1         0.796|
 |plot: main                                        :         1         0.088|
 *---------------------------------------------------------------------------*
 
 All done: wannier90 exiting
