<PP_INFO>
Generated using Vanderbilt code, version   7  3  6                              
Author: jry20    Generation date:   31    5    7                              
Automatically converted from original format                                    
    1        The Pseudo was generated with a Scalar-Relativistic Calculation
  1.80000000000E+00    Local Potential cutoff radius
nl pn  l   occ               Rcut            Rcut US             E pseu
5S  5  0  2.00      0.00000000000      2.50000000000     -2.47502359800
5P  5  1  6.00      0.00000000000      1.80000000000     -1.37712372000
6S  6  0  2.00      0.00000000000      2.50000000000     -0.23739969500
</PP_INFO>


<PP_HEADER>
   0                   Version Number
  ba                   Element
   US                  Ultrasoft pseudopotential
    F                  Nonlinear Core Correction
SLA  PW   PBE  PBE     PBE  Exchange-Correlation functional
   10.00000000000      Z valence
  -51.10821337360      Total energy
  0.0000000  0.0000000 Suggested cutoff for wfc and rho
    2                  Max angular momentum component
  881                  Number of points in mesh
    3    6             Number of Wavefunctions, Number of Projectors
 Wavefunctions         nl  l   occ
                       5S  0  2.00
                       5P  1  6.00
                       6S  0  2.00
</PP_HEADER>


<PP_MESH>
  <PP_R>
  0.00000000000E+00  1.02179484576E-09  2.06945655119E-09  3.14363993897E-09
  4.24501640867E-09  5.37427435645E-09  6.53211960527E-09  7.71927584612E-09
  8.93648509029E-09  1.01845081332E-08  1.14641250298E-08  1.27761355824E-08
  1.41213598403E-08  1.55006386124E-08  1.69148339928E-08  1.83648298997E-08
  1.98515326278E-08  2.13758714147E-08  2.29387990216E-08  2.45412923293E-08
  2.61843529482E-08  2.78690078447E-08  2.95963099829E-08  3.13673389830E-08
  3.31832017956E-08  3.50450333942E-08  3.69539974841E-08  3.89112872301E-08
  4.09181260018E-08  4.29757681390E-08  4.50854997348E-08  4.72486394402E-08
  4.94665392880E-08  5.17405855378E-08  5.40721995425E-08  5.64628386367E-08
  5.89139970477E-08  6.14272068293E-08  6.40040388194E-08  6.66461036219E-08
  6.93550526133E-08  7.21325789750E-08  7.49804187512E-08  7.79003519347E-08
  8.08942035785E-08  8.39638449376E-08  8.71111946377E-08  9.03382198747E-08
  9.36469376446E-08  9.70394160035E-08  1.00517775361E-07  1.04084189805E-07
  1.07740888460E-07  1.11490156883E-07  1.15334338487E-07  1.19275836013E-07
  1.23317113023E-07  1.27460695447E-07  1.31709173160E-07  1.36065201599E-07
  1.40531503422E-07  1.45110870215E-07  1.49806164229E-07  1.54620320178E-07
  1.59556347064E-07  1.64617330067E-07  1.69806432463E-07  1.75126897613E-07
  1.80582050979E-07  1.86175302210E-07  1.91910147269E-07  1.97790170623E-07
  2.03819047477E-07  2.10000546075E-07  2.16338530054E-07  2.22836960863E-07
  2.29499900230E-07  2.36331512710E-07  2.43336068284E-07  2.50517945026E-07
  2.57881631844E-07  2.65431731281E-07  2.73172962395E-07  2.81110163708E-07
  2.89248296229E-07  2.97592446555E-07  3.06147830052E-07  3.14919794114E-07
  3.23913821503E-07  3.33135533780E-07  3.42590694814E-07  3.52285214390E-07
  3.62225151897E-07  3.72416720120E-07  3.82866289121E-07  3.93580390221E-07
  4.04565720081E-07  4.15829144890E-07  4.27377704657E-07  4.39218617605E-07
  4.51359284692E-07  4.63807294230E-07  4.76570426629E-07  4.89656659263E-07
  5.03074171454E-07  5.16831349583E-07  5.30936792334E-07  5.45399316069E-07
  5.60227960335E-07  5.75431993517E-07  5.91020918633E-07  6.07004479266E-07
  6.23392665663E-07  6.40195720974E-07  6.57424147656E-07  6.75088714035E-07
  6.93200461041E-07  7.11770709106E-07  7.30811065239E-07  7.50333430281E-07
  7.70350006348E-07  7.90873304451E-07  8.11916152318E-07  8.33491702416E-07
  8.55613440164E-07  8.78295192370E-07  9.01551135867E-07  9.25395806376E-07
  9.49844107593E-07  9.74911320502E-07  1.00061311293E-06  1.02696554932E-06
  1.05398510083E-06  1.08168865553E-06  1.11009352906E-06  1.13921747539E-06
  1.16907869793E-06  1.19969586091E-06  1.23108810107E-06  1.26327503957E-06
  1.29627679430E-06  1.33011399243E-06  1.36480778330E-06  1.40037985167E-06
  1.43685243124E-06  1.47424831856E-06  1.51259088728E-06  1.55190410274E-06
  1.59221253699E-06  1.63354138411E-06  1.67591647597E-06  1.71936429840E-06
  1.76391200768E-06  1.80958744760E-06  1.85641916678E-06  1.90443643657E-06
  1.95366926934E-06  2.00414843721E-06  2.05590549129E-06  2.10897278143E-06
  2.16338347642E-06  2.21917158472E-06  2.27637197569E-06  2.33502040146E-06
  2.39515351920E-06  2.45680891406E-06  2.52002512267E-06  2.58484165722E-06
  2.65129903015E-06  2.71943877949E-06  2.78930349480E-06  2.86093684380E-06
  2.93438359965E-06  3.00968966899E-06  3.08690212055E-06  3.16606921462E-06
  3.24724043322E-06  3.33046651101E-06  3.41579946698E-06  3.50329263702E-06
  3.59300070721E-06  3.68497974800E-06  3.77928724930E-06  3.87598215636E-06
  3.97512490664E-06  4.07677746760E-06  4.18100337539E-06  4.28786777459E-06
  4.39743745895E-06  4.50978091306E-06  4.62496835526E-06  4.74307178144E-06
  4.86416501009E-06  4.98832372842E-06  5.11562553966E-06  5.24615001160E-06
  5.37997872628E-06  5.51719533100E-06  5.65788559061E-06  5.80213744110E-06
  5.95004104456E-06  6.10168884558E-06  6.25717562895E-06  6.41659857899E-06
  6.58005734022E-06  6.74765407969E-06  6.91949355082E-06  7.09568315887E-06
  7.27633302809E-06  7.46155607051E-06  7.65146805658E-06  7.84618768747E-06
  8.04583666928E-06  8.25053978913E-06  8.46042499313E-06  8.67562346636E-06
  8.89626971489E-06  9.12250164978E-06  9.35446067338E-06  9.59229176761E-06
  9.83614358466E-06  1.00861685398E-05  1.03425229069E-05  1.06053669157E-05
  1.08748648522E-05  1.11511851615E-05  1.14345005527E-05  1.17249881071E-05
  1.20228293891E-05  1.23282105589E-05  1.26413224899E-05  1.29623608872E-05
  1.32915264102E-05  1.36290247980E-05  1.39750669983E-05  1.43298692985E-05
  1.46936534618E-05  1.50666468649E-05  1.54490826411E-05  1.58411998250E-05
  1.62432435026E-05  1.66554649645E-05  1.70781218623E-05  1.75114783704E-05
  1.79558053507E-05  1.84113805222E-05  1.88784886339E-05  1.93574216439E-05
  1.98484789007E-05  2.03519673311E-05  2.08682016319E-05  2.13975044661E-05
  2.19402066655E-05  2.24966474364E-05  2.30671745725E-05  2.36521446718E-05
  2.42519233597E-05  2.48668855173E-05  2.54974155161E-05  2.61439074578E-05
  2.68067654209E-05  2.74864037132E-05  2.81832471309E-05  2.88977312236E-05
  2.96303025673E-05  3.03814190428E-05  3.11515501224E-05  3.19411771631E-05
  3.27507937075E-05  3.35809057924E-05  3.44320322647E-05  3.53047051062E-05
  3.61994697659E-05  3.71168855008E-05  3.80575257255E-05  3.90219783710E-05
  4.00108462514E-05  4.10247474414E-05  4.20643156622E-05  4.31302006778E-05
  4.42230687011E-05  4.53436028100E-05  4.64925033750E-05  4.76704884963E-05
  4.88782944529E-05  5.01166761628E-05  5.13864076550E-05  5.26882825530E-05
  5.40231145709E-05  5.53917380222E-05  5.67950083411E-05  5.82338026173E-05
  5.97090201440E-05  6.12215829802E-05  6.27724365269E-05  6.43625501180E-05
  6.59929176264E-05  6.76645580847E-05  6.93785163227E-05  7.11358636200E-05
  7.29376983760E-05  7.47851467960E-05  7.66793635955E-05  7.86215327215E-05
  8.06128680930E-05  8.26546143594E-05  8.47480476787E-05  8.68944765147E-05
  8.90952424554E-05  9.13517210512E-05  9.36653226745E-05  9.60374934019E-05
  9.84697159170E-05  1.00963510438E-04  1.03520435668E-04  1.06142089769E-04
  1.08830111359E-04  1.11586180540E-04  1.14412019944E-04  1.17309395813E-04
  1.20280119101E-04  1.23326046608E-04  1.26449082137E-04  1.29651177686E-04
  1.32934334670E-04  1.36300605169E-04  1.39752093211E-04  1.43290956089E-04
  1.46919405707E-04  1.50639709965E-04  1.54454194173E-04  1.58365242509E-04
  1.62375299505E-04  1.66486871577E-04  1.70702528592E-04  1.75024905472E-04
  1.79456703843E-04  1.84000693725E-04  1.88659715258E-04  1.93436680483E-04
  1.98334575158E-04  2.03356460627E-04  2.08505475732E-04  2.13784838775E-04
  2.19197849530E-04  2.24747891304E-04  2.30438433055E-04  2.36273031556E-04
  2.42255333621E-04  2.48389078384E-04  2.54678099636E-04  2.61126328218E-04
  2.67737794483E-04  2.74516630815E-04  2.81467074204E-04  2.88593468906E-04
  2.95900269149E-04  3.03392041921E-04  3.11073469823E-04  3.18949353998E-04
  3.27024617131E-04  3.35304306523E-04  3.43793597250E-04  3.52497795394E-04
  3.61422341364E-04  3.70572813291E-04  3.79954930517E-04  3.89574557172E-04
  3.99437705835E-04  4.09550541295E-04  4.19919384404E-04  4.30550716025E-04
  4.41451181088E-04  4.52627592738E-04  4.64086936596E-04  4.75836375124E-04
  4.87883252105E-04  5.00235097229E-04  5.12899630801E-04  5.25884768566E-04
  5.39198626659E-04  5.52849526674E-04  5.66846000869E-04  5.81196797495E-04
  5.95910886266E-04  6.10997463969E-04  6.26465960204E-04  6.42326043286E-04
  6.58587626283E-04  6.75260873213E-04  6.92356205398E-04  7.09884307979E-04
  7.27856136589E-04  7.46282924206E-04  7.65176188172E-04  7.84547737393E-04
  8.04409679717E-04  8.24774429505E-04  8.45654715388E-04  8.67063588225E-04
  8.89014429258E-04  9.11520958478E-04  9.34597243197E-04  9.58257706845E-04
  9.82517137982E-04  1.00739069954E-03  1.03289393831E-03  1.05904279464E-03
  1.08585361243E-03  1.11334314929E-03  1.14152858709E-03  1.17042754265E-03
  1.20005807876E-03  1.23043871545E-03  1.26158844163E-03  1.29352672687E-03
  1.32627353366E-03  1.35984932981E-03  1.39427510128E-03  1.42957236531E-03
  1.46576318383E-03  1.50287017728E-03  1.54091653875E-03  1.57992604844E-03
  1.61992308857E-03  1.66093265859E-03  1.70298039082E-03  1.74609256646E-03
  1.79029613202E-03  1.83561871618E-03  1.88208864701E-03  1.92973496974E-03
  1.97858746487E-03  2.02867666681E-03  2.08003388293E-03  2.13269121317E-03
  2.18668157006E-03  2.24203869935E-03  2.29879720104E-03  2.35699255104E-03
  2.41666112334E-03  2.47784021274E-03  2.54056805816E-03  2.60488386655E-03
  2.67082783738E-03  2.73844118778E-03  2.80776617829E-03  2.87884613929E-03
  2.95172549807E-03  3.02644980661E-03  3.10306577002E-03  3.18162127578E-03
  3.26216542363E-03  3.34474855630E-03  3.42942229092E-03  3.51623955134E-03
  3.60525460117E-03  3.69652307771E-03  3.79010202674E-03  3.88604993814E-03
  3.98442678248E-03  4.08529404850E-03  4.18871478151E-03  4.29475362284E-03
  4.40347685022E-03  4.51495241920E-03  4.62925000565E-03  4.74644104928E-03
  4.86659879830E-03  4.98979835521E-03  5.11611672376E-03  5.24563285704E-03
  5.37842770684E-03  5.51458427426E-03  5.65418766160E-03  5.79732512552E-03
  5.94408613158E-03  6.09456241021E-03  6.24884801396E-03  6.40703937637E-03
  6.56923537218E-03  6.73553737917E-03  6.90604934152E-03  7.08087783474E-03
  7.26013213234E-03  7.44392427409E-03  7.63236913606E-03  7.82558450242E-03
  8.02369113907E-03  8.22681286910E-03  8.43507665021E-03  8.64861265403E-03
  8.86755434754E-03  9.09203857640E-03  9.32220565056E-03  9.55819943196E-03
  9.80016742437E-03  1.00482608657E-02  1.03026348223E-02  1.05634482864E-02
  1.08308642747E-02  1.11050499310E-02  1.13861766302E-02  1.16744200857E-02
  1.19699604590E-02  1.22729824725E-02  1.25836755248E-02  1.29022338092E-02
  1.32288564349E-02  1.35637475517E-02  1.39071164775E-02  1.42591778291E-02
  1.46201516562E-02  1.49902635793E-02  1.53697449303E-02  1.57588328974E-02
  1.61577706733E-02  1.65668076071E-02  1.69861993602E-02  1.74162080661E-02
  1.78571024941E-02  1.83091582178E-02  1.87726577865E-02  1.92478909028E-02
  1.97351546026E-02  2.02347534417E-02  2.07469996857E-02  2.12722135051E-02
  2.18107231755E-02  2.23628652833E-02  2.29289849350E-02  2.35094359739E-02
  2.41045812008E-02  2.47147926009E-02  2.53404515761E-02  2.59819491837E-02
  2.66396863806E-02  2.73140742738E-02  2.80055343779E-02  2.87144988778E-02
  2.94414108995E-02  3.01867247866E-02  3.09509063846E-02  3.17344333319E-02
  3.25377953582E-02  3.33614945911E-02  3.42060458694E-02  3.50719770650E-02
  3.59598294132E-02  3.68701578507E-02  3.78035313622E-02  3.87605333367E-02
  3.97417619315E-02  4.07478304464E-02  4.17793677071E-02  4.28370184578E-02
  4.39214437648E-02  4.50333214291E-02  4.61733464105E-02  4.73422312617E-02
  4.85407065737E-02  4.97695214328E-02  5.10294438881E-02  5.23212614322E-02
  5.36457814932E-02  5.50038319391E-02  5.63962615957E-02  5.78239407769E-02
  5.92877618287E-02  6.07886396868E-02  6.23275124488E-02  6.39053419602E-02
  6.55231144159E-02  6.71818409763E-02  6.88825583994E-02  7.06263296891E-02
  7.24142447592E-02  7.42474211148E-02  7.61270045507E-02  7.80541698679E-02
  8.00301216073E-02  8.20560948032E-02  8.41333557547E-02  8.62632028175E-02
  8.84469672155E-02  9.06860138723E-02  9.29817422652E-02  9.53355872990E-02
  9.77490202035E-02  1.00223549453E-01  1.02760721709E-01  1.05362122786E-01
  1.08029378644E-01  1.10764156407E-01  1.13568165398E-01  1.16443158214E-01
  1.19390931821E-01  1.22413328671E-01  1.25512237862E-01  1.28689596312E-01
  1.31947389975E-01  1.35287655077E-01  1.38712479392E-01  1.42224003548E-01
  1.45824422361E-01  1.49515986211E-01  1.53301002444E-01  1.57181836819E-01
  1.61160914984E-01  1.65240723992E-01  1.69423813858E-01  1.73712799147E-01
  1.78110360616E-01  1.82619246883E-01  1.87242276150E-01  1.91982337960E-01
  1.96842395006E-01  2.01825484981E-01  2.06934722480E-01  2.12173300942E-01
  2.17544494650E-01  2.23051660773E-01  2.28698241470E-01  2.34487766039E-01
  2.40423853119E-01  2.46510212960E-01  2.52750649733E-01  2.59149063915E-01
  2.65709454724E-01  2.72435922617E-01  2.79332671855E-01  2.86404013131E-01
  2.93654366264E-01  3.01088262960E-01  3.08710349647E-01  3.16525390377E-01
  3.24538269806E-01  3.32753996242E-01  3.41177704784E-01  3.49814660523E-01
  3.58670261837E-01  3.67750043765E-01  3.77059681468E-01  3.86604993771E-01
  3.96391946806E-01  4.06426657736E-01  4.16715398582E-01  4.27264600144E-01
  4.38080856014E-01  4.49170926705E-01  4.60541743873E-01  4.72200414647E-01
  4.84154226077E-01  4.96410649685E-01  5.08977346133E-01  5.21862170016E-01
  5.35073174769E-01  5.48618617700E-01  5.62506965150E-01  5.76746897791E-01
  5.91347316042E-01  6.06317345641E-01  6.21666343344E-01  6.37403902774E-01
  6.53539860417E-01  6.70084301773E-01  6.87047567655E-01  7.04440260658E-01
  7.22273251781E-01  7.40557687223E-01  7.59304995352E-01  7.78526893846E-01
  7.98235397017E-01  8.18442823322E-01  8.39161803058E-01  8.60405286264E-01
  8.82186550807E-01  9.04519210688E-01  9.27417224545E-01  9.50894904382E-01
  9.74966924515E-01  9.99648330738E-01  1.02495454973E+00  1.05090139871E+00
  1.07750509530E+00  1.10478226768E+00  1.13274996496E+00  1.16142566787E+00
  1.19082729965E+00  1.22097323729E+00  1.25188232297E+00  1.28357387588E+00
  1.31606770427E+00  1.34938411785E+00  1.38354394045E+00  1.41856852307E+00
  1.45447975723E+00  1.49130008860E+00  1.52905253110E+00  1.56776068124E+00
  1.60744873286E+00  1.64814149229E+00  1.68986439383E+00  1.73264351565E+00
  1.77650559610E+00  1.82147805040E+00  1.86758898780E+00  1.91486722914E+00
  1.96334232485E+00  2.01304457346E+00  2.06400504048E+00  2.11625557786E+00
  2.16982884390E+00  2.22475832362E+00  2.28107834974E+00  2.33882412412E+00
  2.39803173973E+00  2.45873820326E+00  2.52098145823E+00  2.58480040871E+00
  2.65023494361E+00  2.71732596165E+00  2.78611539689E+00  2.85664624498E+00
  2.92896258999E+00  3.00310963199E+00  3.07913371530E+00  3.15708235743E+00
  3.23700427884E+00  3.31894943331E+00  3.40296903926E+00  3.48911561165E+00
  3.57744299490E+00  3.66800639651E+00  3.76086242154E+00  3.85606910804E+00
  3.95368596328E+00  4.05377400098E+00  4.15639577942E+00  4.26161544054E+00
  4.36949875007E+00  4.48011313858E+00  4.59352774367E+00  4.70981345315E+00
  4.82904294939E+00  4.95129075469E+00  5.07663327792E+00  5.20514886223E+00
  5.33691783405E+00  5.47202255327E+00  5.61054746474E+00  5.75257915104E+00
  5.89820638659E+00  6.04752019317E+00  6.20061389676E+00  6.35758318590E+00
  6.51852617152E+00  6.68354344821E+00  6.85273815716E+00  7.02621605055E+00
  7.20408555772E+00  7.38645785291E+00  7.57344692472E+00  7.76516964743E+00
  7.96174585397E+00  8.16329841087E+00  8.36995329504E+00  8.58183967251E+00
  8.79908997916E+00  9.02184000351E+00  9.25022897157E+00  9.48439963389E+00
  9.72449835474E+00  9.97067520365E+00  1.02230840492E+01  1.04818826550E+01
  1.07472327788E+01  1.10193002729E+01  1.12982551884E+01  1.15842718813E+01
  1.18775291211E+01  1.21782102034E+01  1.24865030635E+01  1.28026003945E+01
  1.31266997675E+01  1.34590037553E+01  1.37997200585E+01  1.41490616360E+01
  1.45072468376E+01  1.48744995408E+01  1.52510492905E+01  1.56371314424E+01
  1.60329873105E+01  1.64388643177E+01  1.68550161502E+01  1.72817029165E+01
  1.77191913097E+01  1.81677547743E+01  1.86276736771E+01  1.90992354824E+01
  1.95827349316E+01  2.00784742276E+01  2.05867632236E+01  2.11079196169E+01
  2.16422691470E+01  2.21901457999E+01  2.27518920163E+01  2.33278589059E+01
  2.39184064667E+01  2.45239038102E+01  2.51447293919E+01  2.57812712480E+01
  2.64339272379E+01  2.71031052929E+01  2.77892236710E+01  2.84927112185E+01
  2.92140076381E+01  2.99535637635E+01  3.07118418413E+01  3.14893158201E+01
  3.22864716464E+01  3.31038075684E+01  3.39418344478E+01  3.48010760787E+01
  3.56820695151E+01  3.65853654064E+01  3.75115283421E+01  3.84611372042E+01
  3.94347855291E+01  4.04330818786E+01  4.14566502205E+01  4.25061303184E+01
  4.35821781315E+01  4.46854662246E+01  4.58166841888E+01  4.69765390721E+01
  4.81657558216E+01  4.93850777364E+01  5.06352669324E+01  5.19171048186E+01
  5.32313925854E+01  5.45789517054E+01  5.59606244469E+01  5.73772744004E+01
  5.88297870183E+01  6.03190701681E+01  6.18460547003E+01  6.34116950301E+01
  6.50169697334E+01  6.66628821594E+01  6.83504610568E+01  7.00807612174E+01
  7.18548641350E+01  7.36738786819E+01  7.55389418013E+01  7.74512192183E+01
  7.94119061686E+01  8.14222281453E+01  8.34834416652E+01  8.55968350538E+01
  8.77637292507E+01  8.99854786354E+01  9.22634718735E+01  9.45991327850E+01
  9.69939212340E+01  9.94493340412E+01  1.01966905920E+02  1.04548210433E+02
  1.07194860982E+02  1.09908511809E+02  1.12690859033E+02  1.15543641712E+02
  1.18468642929E+02  1.21467690904E+02  1.24542660140E+02  1.27695472593E+02
  1.30928098873E+02  1.34242559477E+02  1.37640926051E+02  1.41125322684E+02
  1.44697927238E+02
  </PP_R>
  <PP_RAB>
  1.00907562812E-09  1.03462049926E-09  1.06081204190E-09  1.08766662659E-09
  1.11520103833E-09  1.14343248703E-09  1.17237861825E-09  1.20205752427E-09
  1.23248775537E-09  1.26368833145E-09  1.29567875386E-09  1.32847901768E-09
  1.36210962412E-09  1.39659159343E-09  1.43194647794E-09  1.46819637561E-09
  1.50536394381E-09  1.54347241348E-09  1.58254560366E-09  1.62260793635E-09
  1.66368445182E-09  1.70580082423E-09  1.74898337769E-09  1.79325910269E-09
  1.83865567301E-09  1.88520146297E-09  1.93292556522E-09  1.98185780887E-09
  2.03202877816E-09  2.08346983159E-09  2.13621312149E-09  2.19029161412E-09
  2.24573911032E-09  2.30259026656E-09  2.36088061668E-09  2.42064659403E-09
  2.48192555431E-09  2.54475579885E-09  2.60917659860E-09  2.67522821866E-09
  2.74295194345E-09  2.81239010249E-09  2.88358609690E-09  2.95658442648E-09
  3.03143071758E-09  3.10817175156E-09  3.18685549406E-09  3.26753112498E-09
  3.35024906923E-09  3.43506102821E-09  3.52202001214E-09  3.61118037324E-09
  3.70259783962E-09  3.79632955019E-09  3.89243409030E-09  3.99097152843E-09
  4.09200345368E-09  4.19559301430E-09  4.30180495713E-09  4.41070566809E-09
  4.52236321367E-09  4.63684738348E-09  4.75422973385E-09  4.87458363256E-09
  4.99798430473E-09  5.12450887978E-09  5.25423643970E-09  5.38724806844E-09
  5.52362690258E-09  5.66345818335E-09  5.80682930985E-09  5.95382989370E-09
  6.10455181504E-09  6.25908927998E-09  6.41753887948E-09  6.57999964968E-09
  6.74657313386E-09  6.91736344587E-09  7.09247733522E-09  7.27202425378E-09
  7.45611642422E-09  7.64486891014E-09  7.83839968799E-09  8.03682972081E-09
  8.24028303383E-09  8.44888679199E-09  8.66277137942E-09  8.88207048097E-09
  9.10692116570E-09  9.33746397262E-09  9.57384299848E-09  9.81620598787E-09
  1.00647044255E-08  1.03194936311E-08  1.05807328561E-08  1.08485853836E-08
  1.11232186301E-08  1.14048042504E-08  1.16935182445E-08  1.19895410682E-08
  1.22930577454E-08  1.26042579839E-08  1.29233362938E-08  1.32504921097E-08
  1.35859299145E-08  1.39298593677E-08  1.42824954365E-08  1.46440585298E-08
  1.50147746365E-08  1.53948754661E-08  1.57845985939E-08  1.61841876098E-08
  1.65938922697E-08  1.70139686525E-08  1.74446793195E-08  1.78862934790E-08
  1.83390871542E-08  1.88033433558E-08  1.92793522591E-08  1.97674113852E-08
  2.02678257868E-08  2.07809082394E-08  2.13069794361E-08  2.18463681885E-08
  2.23994116322E-08  2.29664554374E-08  2.35478540248E-08  2.41439707875E-08
  2.47551783179E-08  2.53818586407E-08  2.60244034513E-08  2.66832143612E-08
  2.73587031488E-08  2.80512920164E-08  2.87614138546E-08  2.94895125128E-08
  3.02360430763E-08  3.10014721509E-08  3.17862781549E-08  3.25909516174E-08
  3.34159954856E-08  3.42619254387E-08  3.51292702106E-08  3.60185719199E-08
  3.69303864092E-08  3.78652835922E-08  3.88238478100E-08  3.98066781965E-08
  4.08143890528E-08  4.18476102308E-08  4.29069875274E-08  4.39931830880E-08
  4.51068758201E-08  4.62487618180E-08  4.74195547975E-08  4.86199865424E-08
  4.98508073617E-08  5.11127865583E-08  5.24067129103E-08  5.37333951639E-08
  5.50936625387E-08  5.64883652460E-08  5.79183750204E-08  5.93845856646E-08
  6.08879136080E-08  6.24292984795E-08  6.40097036948E-08  6.56301170585E-08
  6.72915513819E-08  6.89950451154E-08  7.07416629981E-08  7.25324967230E-08
  7.43686656195E-08  7.62513173529E-08  7.81816286418E-08  8.01608059937E-08
  8.21900864587E-08  8.42707384034E-08  8.64040623027E-08  8.85913915537E-08
  9.08340933083E-08  9.31335693282E-08  9.54912568606E-08  9.79086295370E-08
  1.00387198294E-07  1.02928512318E-07  1.05534160013E-07  1.08205769993E-07
  1.10945012102E-07  1.13753598455E-07  1.16633284510E-07  1.19585870164E-07
  1.22613200880E-07  1.25717168839E-07  1.28899714120E-07  1.32162825918E-07
  1.35508543785E-07  1.38938958903E-07  1.42456215393E-07  1.46062511656E-07
  1.49760101742E-07  1.53551296768E-07  1.57438466352E-07  1.61424040103E-07
  1.65510509134E-07  1.69700427620E-07  1.73996414399E-07  1.78401154600E-07
  1.82917401330E-07  1.87547977391E-07  1.92295777043E-07  1.97163767815E-07
  2.02154992360E-07  2.07272570356E-07  2.12519700456E-07  2.17899662287E-07
  2.23415818500E-07  2.29071616873E-07  2.34870592463E-07  2.40816369818E-07
  2.46912665245E-07  2.53163289124E-07  2.59572148301E-07  2.66143248520E-07
  2.72880696933E-07  2.79788704664E-07  2.86871589444E-07  2.94133778306E-07
  3.01579810354E-07  3.09214339601E-07  3.17042137876E-07  3.25068097808E-07
  3.33297235882E-07  3.41734695579E-07  3.50385750585E-07  3.59255808091E-07
  3.68350412172E-07  3.77675247252E-07  3.87236141655E-07  3.97039071252E-07
  4.07090163194E-07  4.17395699740E-07  4.27962122185E-07  4.38796034888E-07
  4.49904209397E-07  4.61293588682E-07  4.72971291477E-07  4.84944616725E-07
  4.97221048145E-07  5.09808258906E-07  5.22714116425E-07  5.35946687282E-07
  5.49514242265E-07  5.63425261538E-07  5.77688439940E-07  5.92312692423E-07
  6.07307159620E-07  6.22681213561E-07  6.38444463530E-07  6.54606762073E-07
  6.71178211151E-07  6.88169168459E-07  7.05590253900E-07  7.23452356218E-07
  7.41766639810E-07  7.60544551698E-07  7.79797828688E-07  7.99538504706E-07
  8.19778918316E-07  8.40531720437E-07  8.61809882245E-07  8.83626703283E-07
  9.05995819775E-07  9.28931213147E-07  9.52447218767E-07  9.76558534903E-07
  1.00128023191E-06  1.02662776166E-06  1.05261696718E-06  1.07926409257E-06
  1.10658579315E-06  1.13459914588E-06  1.16332166000E-06  1.19277128804E-06
  1.22296643695E-06  1.25392597970E-06  1.28566926700E-06  1.31821613945E-06
  1.35158693990E-06  1.38580252618E-06  1.42088428416E-06  1.45685414106E-06
  1.49373457923E-06  1.53154865013E-06  1.57031998880E-06  1.61007282858E-06
  1.65083201629E-06  1.69262302774E-06  1.73547198369E-06  1.77940566613E-06
  1.82445153503E-06  1.87063774553E-06  1.91799316551E-06  1.96654739366E-06
  2.01633077795E-06  2.06737443461E-06  2.11971026759E-06  2.17337098850E-06
  2.22839013701E-06  2.28480210191E-06  2.34264214249E-06  2.40194641067E-06
  2.46275197355E-06  2.52509683659E-06  2.58901996734E-06  2.65456131985E-06
  2.72176185961E-06  2.79066358912E-06  2.86130957422E-06  2.93374397095E-06
  3.00801205316E-06  3.08416024083E-06  3.16223612904E-06  3.24228851777E-06
  3.32436744238E-06  3.40852420485E-06  3.49481140590E-06  3.58328297785E-06
  3.67399421831E-06  3.76700182476E-06  3.86236392996E-06  3.96014013836E-06
  4.06039156326E-06  4.16318086506E-06  4.26857229042E-06  4.37663171242E-06
  4.48742667171E-06  4.60102641875E-06  4.71750195708E-06  4.83692608769E-06
  4.95937345457E-06  5.08492059130E-06  5.21364596893E-06  5.34563004500E-06
  5.48095531387E-06  5.61970635823E-06  5.76196990200E-06  5.90783486453E-06
  6.05739241616E-06  6.21073603524E-06  6.36796156652E-06  6.52916728107E-06
  6.69445393771E-06  6.86392484599E-06  7.03768593074E-06  7.21584579829E-06
  7.39851580436E-06  7.58581012365E-06  7.77784582120E-06  7.97474292559E-06
  8.17662450390E-06  8.38361673870E-06  8.59584900687E-06  8.81345396049E-06
  9.03656760973E-06  9.26532940790E-06  9.49988233856E-06  9.74037300493E-06
  9.98695172150E-06  1.02397726080E-05  1.04989936857E-05  1.07647769763E-05
  1.10372886028E-05  1.13166988941E-05  1.16031824905E-05  1.18969184537E-05
  1.21980903783E-05  1.25068865063E-05  1.28234998456E-05  1.31481282898E-05
  1.34809747421E-05  1.38222472425E-05  1.41721590974E-05  1.45309290130E-05
  1.48987812323E-05  1.52759456749E-05  1.56626580807E-05  1.60591601578E-05
  1.64656997327E-05  1.68825309059E-05  1.73099142106E-05  1.77481167751E-05
  1.81974124903E-05  1.86580821808E-05  1.91304137799E-05  1.96147025104E-05
  2.01112510686E-05  2.06203698133E-05  2.11423769603E-05  2.16775987813E-05
  2.22263698071E-05  2.27890330376E-05  2.33659401556E-05  2.39574517468E-05
  2.45639375252E-05  2.51857765642E-05  2.58233575334E-05  2.64770789417E-05
  2.71473493863E-05  2.78345878079E-05  2.85392237530E-05  2.92616976420E-05
  3.00024610445E-05  3.07619769619E-05  3.15407201163E-05  3.23391772474E-05
  3.31578474171E-05  3.39972423208E-05  3.48578866077E-05  3.57403182084E-05
  3.66450886714E-05  3.75727635077E-05  3.85239225444E-05  3.94991602866E-05
  4.04990862899E-05  4.15243255405E-05  4.25755188462E-05  4.36533232372E-05
  4.47584123763E-05  4.58914769800E-05  4.70532252508E-05  4.82443833191E-05
  4.94656956975E-05  5.07179257459E-05  5.20018561489E-05  5.33182894048E-05
  5.46680483272E-05  5.60519765595E-05  5.74709391017E-05  5.89258228517E-05
  6.04175371592E-05  6.19470143942E-05  6.35152105297E-05  6.51231057394E-05
  6.67717050101E-05  6.84620387701E-05  7.01951635329E-05  7.19721625579E-05
  7.37941465275E-05  7.56622542408E-05  7.75776533261E-05  7.95415409700E-05
  8.15551446664E-05  8.36197229830E-05  8.57365663486E-05  8.79069978590E-05
  9.01323741048E-05  9.24140860184E-05  9.47535597441E-05  9.71522575291E-05
  9.96116786377E-05  1.02133360288E-04  1.04718878613E-04  1.07369849647E-04
  1.10087930331E-04  1.12874819556E-04  1.15732259217E-04  1.18662035308E-04
  1.21665979033E-04  1.24745967956E-04  1.27903927170E-04  1.31141830502E-04
  1.34461701747E-04  1.37865615932E-04  1.41355700616E-04  1.44934137214E-04
  1.48603162365E-04  1.52365069331E-04  1.56222209425E-04  1.60176993485E-04
  1.64231893380E-04  1.68389443555E-04  1.72652242614E-04  1.77022954944E-04
  1.81504312384E-04  1.86099115928E-04  1.90810237477E-04  1.95640621636E-04
  2.00593287552E-04  2.05671330803E-04  2.10877925331E-04  2.16216325427E-04
  2.21689867764E-04  2.27301973486E-04  2.33056150340E-04  2.38955994875E-04
  2.45005194685E-04  2.51207530717E-04  2.57566879634E-04  2.64087216235E-04
  2.70772615943E-04  2.77627257350E-04  2.84655424831E-04  2.91861511219E-04
  2.99250020552E-04  3.06825570889E-04  3.14592897196E-04  3.22556854304E-04
  3.30722419947E-04  3.39094697868E-04  3.47678921014E-04  3.56480454803E-04
  3.65504800481E-04  3.74757598558E-04  3.84244632333E-04  3.93971831511E-04
  4.03945275909E-04  4.14171199254E-04  4.24655993081E-04  4.35406210727E-04
  4.46428571429E-04  4.57729964520E-04  4.69317453739E-04  4.81198281645E-04
  4.93379874141E-04  5.05869845119E-04  5.18676001218E-04  5.31806346702E-04
  5.45269088464E-04  5.59072641157E-04  5.73225632450E-04  5.87736908423E-04
  6.02615539096E-04  6.17870824099E-04  6.33512298479E-04  6.49549738669E-04
  6.65993168590E-04  6.82852865921E-04  7.00139368522E-04  7.17863481020E-04
  7.36036281563E-04  7.54669128741E-04  7.73773668691E-04  7.93361842372E-04
  8.13445893031E-04  8.34038373854E-04  8.55152155810E-04  8.76800435701E-04
  8.98996744406E-04  9.21754955342E-04  9.45089293131E-04  9.69014342493E-04
  9.93545057363E-04  1.01869677024E-03  1.04448520175E-03  1.07092647052E-03
  1.09803710320E-03  1.12583404480E-03  1.15433466934E-03  1.18355679062E-03
  1.21351867342E-03  1.24423904490E-03  1.27573710628E-03  1.30803254488E-03
  1.34114554640E-03  1.37509680755E-03  1.40990754897E-03  1.44559952850E-03
  1.48219505479E-03  1.51971700125E-03  1.55818882030E-03  1.59763455808E-03
  1.63807886947E-03  1.67954703348E-03  1.72206496906E-03  1.76565925130E-03
  1.81035712806E-03  1.85618653694E-03  1.90317612284E-03  1.95135525577E-03
  2.00075404926E-03  2.05140337915E-03  2.10333490294E-03  2.15658107951E-03
  2.21117518946E-03  2.26715135588E-03  2.32454456571E-03  2.38339069155E-03
  2.44372651416E-03  2.50558974540E-03  2.56901905179E-03  2.63405407871E-03
  2.70073547518E-03  2.76910491924E-03  2.83920514402E-03  2.91107996443E-03
  2.98477430459E-03  3.06033422585E-03  3.13780695562E-03  3.21724091688E-03
  3.29868575845E-03  3.38219238600E-03  3.46781299389E-03  3.55560109778E-03