
             +---------------------------------------------------+
             |                                                   |
             |                   WANNIER90                       |
             |                                                   |
             +---------------------------------------------------+
             |                                                   |
             |        Welcome to the Maximally-Localized         |
             |        Generalized Wannier Functions code         |
             |            http://www.wannier.org                 |
             |                                                   |
             |  Wannier90 v2.0 Authors:                          |
             |    Arash A. Mostofi  (Imperial College London)    |
             |    Giovanni Pizzi    (EPFL)                       |
             |    Ivo Souza         (Universidad del Pais Vasco) |
             |    Jonathan R. Yates (University of Oxford)       |
             |                                                   |
             |  Wannier90 Contributors:                          |
             |    Young-Su Lee       (KIST, S. Korea)            |
             |    Matthew Shelley    (Imperial College London)   |
             |    Nicolas Poilvert   (Penn State University)     |
             |    Raffaello Bianco   (Paris 6 and CNRS)          |
             |    Gabriele Sclauzero (ETH Zurich)                |
             |                                                   |
             |  Wannier77 Authors:                               |
             |    Nicola Marzari    (EPFL)                       |
             |    Ivo Souza         (Universidad del Pais Vasco) |
             |    David Vanderbilt  (Rutgers University)         |
             |                                                   |
             |  Please cite                                      |
             |                                                   |
             |  [ref] "Wannier90: A Tool for Obtaining Maximally |
             |         Localised Wannier Functions"              |
             |        A. A. Mostofi, J. R. Yates, Y.-S. Lee,     |
             |        I. Souza, D. Vanderbilt and N. Marzari     |
             |        Comput. Phys. Commun. 178, 685 (2008)      |
             |                                                   |
             |  in any publications arising from the use of      |
             |  this code. For the method please cite            |
             |                                                   |
             |  [ref] "Maximally Localized Generalised Wannier   |
             |         Functions for Composite Energy Bands"     |
             |         N. Marzari and D. Vanderbilt              |
             |         Phys. Rev. B 56 12847 (1997)              |
             |                                                   |
             |  [ref] "Maximally Localized Wannier Functions     |
             |         for Entangled Energy Bands"               |
             |         I. Souza, N. Marzari and D. Vanderbilt    |
             |         Phys. Rev. B 65 035109 (2001)             |
             |                                                   |
             |                                                   |
             | Copyright (c) 1996-2015                           |
             |        Arash A. Mostofi, Jonathan R. Yates,       |
             |        Young-Su Lee, Giovanni Pizzi, Ivo Souza,   |
             |        David Vanderbilt and Nicola Marzari        |
             |                                                   |
             |        Release: 2.0.1   2nd April 2015            |
             |                                                   |
             | This program is free software; you can            |
             | redistribute it and/or modify it under the terms  |
             | of the GNU General Public License as published by |
             | the Free Software Foundation; either version 2 of |
             | the License, or (at your option) any later version|
             |                                                   |
             | This program is distributed in the hope that it   |
             | will be useful, but WITHOUT ANY WARRANTY; without |
             | even the implied warranty of MERCHANTABILITY or   |
             | FITNESS FOR A PARTICULAR PURPOSE. See the GNU     |
             | General Public License for more details.          |
             |                                                   |
             | You should have received a copy of the GNU General|
             | Public License along with this program; if not,   |
             | write to the Free Software Foundation, Inc.,      |
             | 675 Mass Ave, Cambridge, MA 02139, USA.           |
             |                                                   |
             +---------------------------------------------------+
             |    Execution started on 14Sep2016 at 14:57:50     |
             +---------------------------------------------------+
 
 ******************************************************************************
 * -> Using CODATA 2006 constant values                                       *
 *    (http://physics.nist.gov/cuu/Constants/index.html)                      *
 * -> Using Bohr value from CODATA                                            *
 ******************************************************************************
 

                                    ------
                                    SYSTEM
                                    ------

                              Lattice Vectors (Ang)
                    a_1     0.000000   2.840094   2.840094
                    a_2     2.840094   0.000000   2.840094
                    a_3     2.840094   2.840094   0.000000

                   Unit Cell Volume:      45.81716  (Ang^3)

                        Reciprocal-Space Vectors (Ang^-1)
                    b_1    -1.106158   1.106158   1.106158
                    b_2     1.106158  -1.106158   1.106158
                    b_3     1.106158   1.106158  -1.106158
  
 *----------------------------------------------------------------------------*
 |   Site       Fractional Coordinate          Cartesian Coordinate (Ang)     |
 +----------------------------------------------------------------------------+
 | G    1   0.00000   0.00000   0.00000   |    0.00000   0.00000   0.00000    |
 | As   1   0.13229   0.13229   0.13229   |    0.75146   0.75146   0.75146    |
 *----------------------------------------------------------------------------*
  
                                ------------
                                K-POINT GRID
                                ------------
  
             Grid size =  2 x  2 x  2      Total points =    8
  
  
 *---------------------------------- MAIN ------------------------------------*
 |  Number of Wannier Functions               :                 4             |
 |  Number of input Bloch states              :                 4             |
 |  Output verbosity (1=low, 5=high)          :                 1             |
 |  Timing Level (1=low, 5=high)              :                 1             |
 |  Optimisation (0=memory, 3=speed)          :                 3             |
 |  Length Unit                               :               Ang             |
 |  Post-processing setup (write *.nnkp)      :                 F             |
 |  Using Gamma-only branch of algorithms     :                 F             |
 *----------------------------------------------------------------------------*
 *------------------------------- WANNIERISE ---------------------------------*
 |  Total number of iterations                :               100             |
 |  Number of CG steps before reset           :                 5             |
 |  Trial step length for line search         :             2.000             |
 |  Convergence tolerence                     :         0.100E-09             |
 |  Convergence window                        :                -1             |
 |  Iterations between writing output         :                13             |
 |  Iterations between backing up to disk     :               100             |
 |  Write r^2_nm to file                      :                 F             |
 |  Write xyz WF centres to file              :                 F             |
 |  Write on-site energies <0n|H|0n> to file  :                 F             |
 |  Use guiding centre to control phases      :                 F             |
 |  Use phases for initial projections        :                 F             |
 *----------------------------------------------------------------------------*
 Time to read parameters        0.000 (sec)

 *---------------------------------- K-MESH ----------------------------------*
 +----------------------------------------------------------------------------+
 |                    Distance to Nearest-Neighbour Shells                    |
 |                    ------------------------------------                    |
 |          Shell             Distance (Ang^-1)          Multiplicity         |
 |          -----             -----------------          ------------         |
 |             1                   0.957961                      8            |
 |             2                   1.106158                      6            |
 |             3                   1.564344                     12            |
 |             4                   1.834355                     24            |
 |             5                   1.915922                      8            |
 |             6                   2.212316                      6            |
 |             7                   2.410815                     24            |
 |             8                   2.473444                     24            |
 |             9                   2.709523                     24            |
 |            10                   2.873883                     32            |
 |            11                   3.128687                     12            |
 |            12                   3.272059                     48            |
 +----------------------------------------------------------------------------+
 | The b-vectors are chosen automatically                                     |
 | The following shells are used:   1                                         |
 +----------------------------------------------------------------------------+
 |                        Shell   # Nearest-Neighbours                        |
 |                        -----   --------------------                        |
 |                          1               8                                 |
 +----------------------------------------------------------------------------+
 | Completeness relation is fully satisfied [Eq. (B1), PRB 56, 12847 (1997)]  |
 +----------------------------------------------------------------------------+
 |                  b_k Vectors (Ang^-1) and Weights (Ang^2)                  |
 |                  ----------------------------------------                  |
 |            No.         b_k(x)      b_k(y)      b_k(z)        w_b           |
 |            ---        --------------------------------     --------        |
 |             1         0.553079    0.553079   -0.553079     0.408635        |
 |             2         0.553079   -0.553079    0.553079     0.408635        |
 |             3        -0.553079    0.553079    0.553079     0.408635        |
 |             4         0.553079    0.553079    0.553079     0.408635        |
 |             5        -0.553079   -0.553079    0.553079     0.408635        |
 |             6        -0.553079    0.553079   -0.553079     0.408635        |
 |             7         0.553079   -0.553079   -0.553079     0.408635        |
 |             8        -0.553079   -0.553079   -0.553079     0.408635        |
 +----------------------------------------------------------------------------+
 |                           b_k Directions (Ang^-1)                          |
 |                           -----------------------                          |
 |            No.           x           y           z                         |
 |            ---        --------------------------------                     |
 |             1         0.553079    0.553079   -0.553079                     |
 |             2         0.553079   -0.553079    0.553079                     |
 |             3        -0.553079    0.553079    0.553079                     |
 |             4         0.553079    0.553079    0.553079                     |
 +----------------------------------------------------------------------------+
  
 *============================================================================*
 |                              MEMORY ESTIMATE                               |
 |         Maximum RAM allocated during each phase of the calculation         |
 *============================================================================*
 |                            Wannierise:            0.06 Mb                  |
 |                          plot_wannier:            0.06 Mb                  |
 *----------------------------------------------------------------------------*
  
 Starting a new Wannier90 calculation ...

 Time to get kmesh              0.012 (sec)

 Reading overlaps from wannier.mmn    : Created on 25Feb2006 at 11:03:51

 Reading projections from wannier.amn : Created on 25Feb2006 at 11:03:51

 Time to read overlaps          0.004 (sec)

 Writing checkpoint file wannier.chk... done


 *------------------------------- WANNIERISE ---------------------------------*
 +--------------------------------------------------------------------+<-- CONV
 | Iter  Delta Spread     RMS Gradient      Spread (Ang^2)      Time  |<-- CONV
 +--------------------------------------------------------------------+<-- CONV

 ------------------------------------------------------------------------------
 Initial State
  WF centre and spread    1  (  0.858454,  0.858454,  0.858454 )     1.17565579
  WF centre and spread    2  (  0.858454, -0.858454, -0.858454 )     1.17565579
  WF centre and spread    3  ( -0.858454,  0.858454, -0.858454 )     1.17565579
  WF centre and spread    4  ( -0.858454, -0.858454,  0.858454 )     1.17565579
  Sum of centres and spreads (  0.000000,  0.000000, -0.000000 )     4.70262316

      0     0.470E+01     0.0000000000        4.7026231555       0.02  <-- CONV
        O_D=      0.0082363 O_OD=      0.5106633 O_TOT=      4.7026232 <-- SPRD
 ------------------------------------------------------------------------------
 Cycle:      1
  WF centre and spread    1  (  0.860085,  0.860085,  0.860085 )     1.16821548
  WF centre and spread    2  (  0.860085, -0.860085, -0.860085 )     1.16821548
  WF centre and spread    3  ( -0.860085,  0.860085, -0.860085 )     1.16821548
  WF centre and spread    4  ( -0.860085, -0.860085,  0.860085 )     1.16821548
  Sum of centres and spreads (  0.000000,  0.000000, -0.000000 )     4.67286193

      1    -0.298E-01     0.2589041927        4.6728619317       0.02  <-- CONV
        O_D=      0.0092655 O_OD=      0.4798729 O_TOT=      4.6728619 <-- SPRD
 Delta: O_D=  0.1029188E-02 O_OD= -0.3079041E-01 O_TOT= -0.2976122E-01 <-- DLTA
 ------------------------------------------------------------------------------
 Cycle:     13
  WF centre and spread    1  (  0.860077,  0.860077,  0.860077 )     1.16821534
  WF centre and spread    2  (  0.860077, -0.860077, -0.860077 )     1.16821534
  WF centre and spread    3  ( -0.860077,  0.860077, -0.860077 )     1.16821534
  WF centre and spread    4  ( -0.860077, -0.860077,  0.860077 )     1.16821534
  Sum of centres and spreads (  0.000000,  0.000000, -0.000000 )     4.67286136

     13    -0.888E-15     0.0000000008        4.6728613563       0.02  <-- CONV
        O_D=      0.0092596 O_OD=      0.4798782 O_TOT=      4.6728614 <-- SPRD
 Delta: O_D=  0.7440489E-12 O_OD= -0.7450707E-12 O_TOT= -0.8881784E-15 <-- DLTA
 ------------------------------------------------------------------------------
 Cycle:     26
  WF centre and spread    1  (  0.860077,  0.860077,  0.860077 )     1.16821534
  WF centre and spread    2  (  0.860077, -0.860077, -0.860077 )     1.16821534
  WF centre and spread    3  ( -0.860077,  0.860077, -0.860077 )     1.16821534
  WF centre and spread    4  ( -0.860077, -0.860077,  0.860077 )     1.16821534
  Sum of centres and spreads (  0.000000,  0.000000, -0.000000 )     4.67286136

     26     0.000E+00     0.0000000001        4.6728613563       0.02  <-- CONV
        O_D=      0.0092596 O_OD=      0.4798782 O_TOT=      4.6728614 <-- SPRD
 Delta: O_D=  0.6316996E-13 O_OD= -0.6294965E-13 O_TOT=  0.0000000E+00 <-- DLTA
 ------------------------------------------------------------------------------
 Cycle:     39
  WF centre and spread    1  (  0.860077,  0.860077,  0.860077 )     1.16821534
  WF centre and spread    2  (  0.860077, -0.860077, -0.860077 )     1.16821534
  WF centre and spread    3  ( -0.860077,  0.860077, -0.860077 )     1.16821534
  WF centre and spread    4  ( -0.860077, -0.860077,  0.860077 )     1.16821534
  Sum of centres and spreads (  0.000000,  0.000000, -0.000000 )     4.67286136

     39     0.000E+00     0.0000000000        4.6728613563       0.02  <-- CONV
        O_D=      0.0092596 O_OD=      0.4798782 O_TOT=      4.6728614 <-- SPRD
 Delta: O_D=  0.5355091E-14 O_OD= -0.5551115E-14 O_TOT=  0.0000000E+00 <-- DLTA
 ------------------------------------------------------------------------------
 Cycle:     52
  WF centre and spread    1  (  0.860077,  0.860077,  0.860077 )     1.16821534
  WF centre and spread    2  (  0.860077, -0.860077, -0.860077 )     1.16821534
  WF centre and spread    3  ( -0.860077,  0.860077, -0.860077 )     1.16821534
  WF centre and spread    4  ( -0.860077, -0.860077,  0.860077 )     1.16821534
  Sum of centres and spreads (  0.000000,  0.000000, -0.000000 )     4.67286136

     52     0.000E+00     0.0000000000        4.6728613563       0.03  <-- CONV
        O_D=      0.0092596 O_OD=      0.4798782 O_TOT=      4.6728614 <-- SPRD
 Delta: O_D=  0.4735795E-15 O_OD= -0.7771561E-15 O_TOT=  0.0000000E+00 <-- DLTA
 ------------------------------------------------------------------------------
 Cycle:     65
  WF centre and spread    1  (  0.860077,  0.860077,  0.860077 )     1.16821534
  WF centre and spread    2  (  0.860077, -0.860077, -0.860077 )     1.16821534
  WF centre and spread    3  ( -0.860077,  0.860077, -0.860077 )     1.16821534
  WF centre and spread    4  ( -0.860077, -0.860077,  0.860077 )     1.16821534
  Sum of centres and spreads (  0.000000,  0.000000, -0.000000 )     4.67286136

     65     0.000E+00     0.0000000000        4.6728613563       0.03  <-- CONV
        O_D=      0.0092596 O_OD=      0.4798782 O_TOT=      4.6728614 <-- SPRD
 Delta: O_D=  0.2949030E-16 O_OD= -0.1665335E-15 O_TOT=  0.0000000E+00 <-- DLTA
 ------------------------------------------------------------------------------
 Cycle:     78
  WF centre and spread    1  (  0.860077,  0.860077,  0.860077 )     1.16821534
  WF centre and spread    2  (  0.860077, -0.860077, -0.860077 )     1.16821534
  WF centre and spread    3  ( -0.860077,  0.860077, -0.860077 )     1.16821534
  WF centre and spread    4  ( -0.860077, -0.860077,  0.860077 )     1.16821534
  Sum of centres and spreads (  0.000000,  0.000000, -0.000000 )     4.67286136

     78     0.888E-15     0.0000000000        4.6728613563       0.04  <-- CONV
        O_D=      0.0092596 O_OD=      0.4798782 O_TOT=      4.6728614 <-- SPRD
 Delta: O_D=  0.3469447E-17 O_OD=  0.5551115E-15 O_TOT=  0.8881784E-15 <-- DLTA
 ------------------------------------------------------------------------------
 Cycle:     91
  WF centre and spread    1  (  0.860077,  0.860077,  0.860077 )     1.16821534
  WF centre and spread    2  (  0.860077, -0.860077, -0.860077 )     1.16821534
  WF centre and spread    3  ( -0.860077,  0.860077, -0.860077 )     1.16821534
  WF centre and spread    4  ( -0.860077, -0.860077,  0.860077 )     1.16821534
  Sum of centres and spreads (  0.000000,  0.000000, -0.000000 )     4.67286136

     91     0.000E+00     0.0000000000        4.6728613563       0.04  <-- CONV
        O_D=      0.0092596 O_OD=      0.4798782 O_TOT=      4.6728614 <-- SPRD
 Delta: O_D= -0.3469447E-17 O_OD=  0.2775558E-15 O_TOT=  0.0000000E+00 <-- DLTA
 ------------------------------------------------------------------------------
 Cycle:    100
  WF centre and spread    1  (  0.860077,  0.860077,  0.860077 )     1.16821534
  WF centre and spread    2  (  0.860077, -0.860077, -0.860077 )     1.16821534
  WF centre and spread    3  ( -0.860077,  0.860077, -0.860077 )     1.16821534
  WF centre and spread    4  ( -0.860077, -0.860077,  0.860077 )     1.16821534
  Sum of centres and spreads (  0.000000,  0.000000, -0.000000 )     4.67286136

    100    -0.888E-15     0.0000000000        4.6728613563       0.04  <-- CONV
        O_D=      0.0092596 O_OD=      0.4798782 O_TOT=      4.6728614 <-- SPRD
 Delta: O_D= -0.5204170E-17 O_OD= -0.4996004E-15 O_TOT= -0.8881784E-15 <-- DLTA
 ------------------------------------------------------------------------------

 Writing checkpoint file wannier.chk... done

 Final State
  WF centre and spread    1  (  0.860077,  0.860077,  0.860077 )     1.16821534
  WF centre and spread    2  (  0.860077, -0.860077, -0.860077 )     1.16821534
  WF centre and spread    3  ( -0.860077,  0.860077, -0.860077 )     1.16821534
  WF centre and spread    4  ( -0.860077, -0.860077,  0.860077 )     1.16821534
  Sum of centres and spreads (  0.000000,  0.000000, -0.000000 )     4.67286136

         Spreads (Ang^2)       Omega I      =     4.183723586
        ================       Omega D      =     0.009259596
                               Omega OD     =     0.479878174
    Final Spread (Ang^2)       Omega Total  =     4.672861356
 ------------------------------------------------------------------------------
 Time for wannierise            0.024 (sec)

 Writing checkpoint file wannier.chk... done

 Total Execution Time           0.040 (sec)

 *===========================================================================*
 |                             TIMING INFORMATION                            |
 *===========================================================================*
 |    Tag                                                Ncalls      Time (s)|
 |---------------------------------------------------------------------------|
 |kmesh: get                                        :         1         0.012|
 |overlap: read                                     :         1         0.004|
 |wann: main                                        :         1         0.024|
 *---------------------------------------------------------------------------*

 All done: wannier90 exiting
