
             +---------------------------------------------------+
             |                                                   |
             |                   WANNIER90                       |
             |                                                   |
             +---------------------------------------------------+
             |                                                   |
             |        Welcome to the Maximally-Localized         |
             |        Generalized Wannier Functions code         |
             |            http://www.wannier.org                 |
             |                                                   |
             |  Wannier90 v2.0 Authors:                          |
             |    Arash A. Mostofi  (Imperial College London)    |
             |    Giovanni Pizzi    (EPFL)                       |
             |    Ivo Souza         (Universidad del Pais Vasco) |
             |    Jonathan R. Yates (University of Oxford)       |
             |                                                   |
             |  Wannier90 Contributors:                          |
             |    Young-Su Lee       (KIST, S. Korea)            |
             |    Matthew Shelley    (Imperial College London)   |
             |    Nicolas Poilvert   (Penn State University)     |
             |    Raffaello Bianco   (Paris 6 and CNRS)          |
             |    Gabriele Sclauzero (ETH Zurich)                |
             |                                                   |
             |  Wannier77 Authors:                               |
             |    Nicola Marzari    (EPFL)                       |
             |    Ivo Souza         (Universidad del Pais Vasco) |
             |    David Vanderbilt  (Rutgers University)         |
             |                                                   |
             |  Please cite                                      |
             |                                                   |
             |  [ref] "Wannier90: A Tool for Obtaining Maximally |
             |         Localised Wannier Functions"              |
             |        A. A. Mostofi, J. R. Yates, Y.-S. Lee,     |
             |        I. Souza, D. Vanderbilt and N. Marzari     |
             |        Comput. Phys. Commun. 178, 685 (2008)      |
             |                                                   |
             |  in any publications arising from the use of      |
             |  this code. For the method please cite            |
             |                                                   |
             |  [ref] "Maximally Localized Generalised Wannier   |
             |         Functions for Composite Energy Bands"     |
             |         N. Marzari and D. Vanderbilt              |
             |         Phys. Rev. B 56 12847 (1997)              |
             |                                                   |
             |  [ref] "Maximally Localized Wannier Functions     |
             |         for Entangled Energy Bands"               |
             |         I. Souza, N. Marzari and D. Vanderbilt    |
             |         Phys. Rev. B 65 035109 (2001)             |
             |                                                   |
             |                                                   |
             | Copyright (c) 1996-2015                           |
             |        Arash A. Mostofi, Jonathan R. Yates,       |
             |        Young-Su Lee, Giovanni Pizzi, Ivo Souza,   |
             |        David Vanderbilt and Nicola Marzari        |
             |                                                   |
             |        Release: 2.0.1   2nd April 2015            |
             |                                                   |
             | This program is free software; you can            |
             | redistribute it and/or modify it under the terms  |
             | of the GNU General Public License as published by |
             | the Free Software Foundation; either version 2 of |
             | the License, or (at your option) any later version|
             |                                                   |
             | This program is distributed in the hope that it   |
             | will be useful, but WITHOUT ANY WARRANTY; without |
             | even the implied warranty of MERCHANTABILITY or   |
             | FITNESS FOR A PARTICULAR PURPOSE. See the GNU     |
             | General Public License for more details.          |
             |                                                   |
             | You should have received a copy of the GNU General|
             | Public License along with this program; if not,   |
             | write to the Free Software Foundation, Inc.,      |
             | 675 Mass Ave, Cambridge, MA 02139, USA.           |
             |                                                   |
             +---------------------------------------------------+
             |    Execution started on 14Sep2016 at 18:31:13     |
             +---------------------------------------------------+
 
 ******************************************************************************
 * -> Using CODATA 2006 constant values                                       *
 *    (http://physics.nist.gov/cuu/Constants/index.html)                      *
 * -> Using Bohr value from CODATA                                            *
 ******************************************************************************
 

                                    ------
                                    SYSTEM
                                    ------

                              Lattice Vectors (Ang)
                    a_1    15.875316   0.000000   0.000000
                    a_2     0.000000  15.875316   0.000000
                    a_3     0.000000   0.000000  15.875316

                   Unit Cell Volume:    4000.98716  (Ang^3)

                        Reciprocal-Space Vectors (Ang^-1)
                    b_1     0.395783   0.000000   0.000000
                    b_2     0.000000   0.395783   0.000000
                    b_3     0.000000   0.000000   0.395783
  
 *----------------------------------------------------------------------------*
 |   Site       Fractional Coordinate          Cartesian Coordinate (Ang)     |
 +----------------------------------------------------------------------------+
 | C    1   0.52095   0.50000   0.50000   |    8.27021   7.93766   7.93766    |
 | C    2   0.47698   0.57616   0.50000   |    7.57221   9.14666   7.93766    |
 | C    3   0.38905   0.57616   0.50000   |    6.17621   9.14666   7.93766    |
 | C    4   0.34508   0.50000   0.50000   |    5.47821   7.93766   7.93766    |
 | C    5   0.38905   0.42384   0.50000   |    6.17621   6.72866   7.93766    |
 | C    6   0.47698   0.42384   0.50000   |    7.57221   6.72866   7.93766    |
 | H    1   0.58917   0.50000   0.50000   |    9.35321   7.93766   7.93766    |
 | H    2   0.51112   0.63524   0.50000   |    8.11421  10.08466   7.93766    |
 | H    3   0.35490   0.63524   0.50000   |    5.63421  10.08466   7.93766    |
 | H    4   0.27686   0.50000   0.50000   |    4.39521   7.93766   7.93766    |
 | H    5   0.35490   0.36476   0.50000   |    5.63421   5.79066   7.93766    |
 | H    6   0.51112   0.36476   0.50000   |    8.11421   5.79066   7.93766    |
 *----------------------------------------------------------------------------*
  
                                -----------
                                PROJECTIONS
                                -----------
  
 +----------------------------------------------------------------------------+
 |     Frac. Coord.   l mr  r        z-axis               x-axis          Z/a |
 +----------------------------------------------------------------------------+
 |  1.00  0.57  0.97  0  1  1  0.000  0.000  1.000  1.000  0.000  0.000   1.0 |
 |  0.75  0.37  0.48  0  1  1  0.000  0.000  1.000  1.000  0.000  0.000   1.0 |
 |  0.07  0.01  0.35  0  1  1  0.000  0.000  1.000  1.000  0.000  0.000   1.0 |
 |  0.34  0.22  0.13  0  1  1  0.000  0.000  1.000  1.000  0.000  0.000   1.0 |
 |  0.90  0.39  0.45  0  1  1  0.000  0.000  1.000  1.000  0.000  0.000   1.0 |
 |  0.66  0.02  0.65  0  1  1  0.000  0.000  1.000  1.000  0.000  0.000   1.0 |
 |  0.65  0.32  0.86  0  1  1  0.000  0.000  1.000  1.000  0.000  0.000   1.0 |
 |  0.40  0.21  0.97  0  1  1  0.000  0.000  1.000  1.000  0.000  0.000   1.0 |
 |  0.60  0.67  0.46  0  1  1  0.000  0.000  1.000  1.000  0.000  0.000   1.0 |
 |  0.33  0.10  0.76  0  1  1  0.000  0.000  1.000  1.000  0.000  0.000   1.0 |
 |  0.61  0.72  0.90  0  1  1  0.000  0.000  1.000  1.000  0.000  0.000   1.0 |
 |  0.66  0.15  0.61  0  1  1  0.000  0.000  1.000  1.000  0.000  0.000   1.0 |
 |  0.98  1.00  0.26  0  1  1  0.000  0.000  1.000  1.000  0.000  0.000   1.0 |
 |  0.55  0.66  0.55  0  1  1  0.000  0.000  1.000  1.000  0.000  0.000   1.0 |
 |  0.98  0.90  0.66  0  1  1  0.000  0.000  1.000  1.000  0.000  0.000   1.0 |
 |  0.73  0.40  0.93  0  1  1  0.000  0.000  1.000  1.000  0.000  0.000   1.0 |
 |  0.15  0.67  0.77  0  1  1  0.000  0.000  1.000  1.000  0.000  0.000   1.0 |
 |  0.34  0.12  0.61  0  1  1  0.000  0.000  1.000  1.000  0.000  0.000   1.0 |
 +----------------------------------------------------------------------------+
  
                                ------------
                                K-POINT GRID
                                ------------
  
             Grid size =  1 x  1 x  1      Total points =    1
  
 *----------------------------------------------------------------------------*
 | k-point      Fractional Coordinate        Cartesian Coordinate (Ang^-1)    |
 +----------------------------------------------------------------------------+
 |     1    0.00000   0.00000   0.00000   |    0.00000   0.00000   0.00000    |
 *----------------------------------------------------------------------------*
  
  
 *---------------------------------- MAIN ------------------------------------*
 |  Number of Wannier Functions               :                18             |
 |  Number of input Bloch states              :                90             |
 |  Output verbosity (1=low, 5=high)          :                 2             |
 |  Timing Level (1=low, 5=high)              :                 1             |
 |  Optimisation (0=memory, 3=speed)          :                 3             |
 |  Length Unit                               :               Ang             |
 |  Post-processing setup (write *.nnkp)      :                 F             |
 |  Using Gamma-only branch of algorithms     :                 T             |
 *----------------------------------------------------------------------------*
 *------------------------------- WANNIERISE ---------------------------------*
 |  Total number of iterations                :               100             |
 |  Number of CG steps before reset           :                 5             |
 |  Trial step length for line search         :             2.000             |
 |  Convergence tolerence                     :         0.100E-09             |
 |  Convergence window                        :                 5             |
 |  Iterations between writing output         :                 1             |
 |  Iterations between backing up to disk     :               100             |
 |  Write r^2_nm to file                      :                 F             |
 |  Write xyz WF centres to file              :                 F             |
 |  Write on-site energies <0n|H|0n> to file  :                 F             |
 |  Use guiding centre to control phases      :                 T             |
 |  Use phases for initial projections        :                 F             |
 |  Iterations before starting guiding centres:                 0             |
 |  Iterations between using guiding centres  :                 1             |
 *----------------------------------------------------------------------------*
 *------------------------------- DISENTANGLE --------------------------------*
 |  Using band disentanglement                :                 T             |
 |  Total number of iterations                :              1000             |
 |  Mixing ratio                              :             0.500             |
 |  Convergence tolerence                     :         1.000E-10             |
 |  Convergence window                        :                 3             |
 *----------------------------------------------------------------------------*
 Time to read parameters        0.003 (sec)

 *---------------------------------- K-MESH ----------------------------------*
 +----------------------------------------------------------------------------+
 |                    Distance to Nearest-Neighbour Shells                    |
 |                    ------------------------------------                    |
 |          Shell             Distance (Ang^-1)          Multiplicity         |
 |          -----             -----------------          ------------         |
 |             1                   0.395783                      6            |
 |             2                   0.559722                     12            |
 |             3                   0.685517                      8            |
 |             4                   0.791567                      6            |
 |             5                   0.884998                     24            |
 |             6                   0.969467                     24            |
 |             7                   1.119444                     12            |
 |             8                   1.187350                     30            |
 |             9                   1.251577                     24            |
 |            10                   1.312665                     24            |
 |            11                   1.371034                      8            |
 |            12                   1.427017                     24            |
 +----------------------------------------------------------------------------+
 | The b-vectors are chosen automatically                                     |
 | Shell:  1 w_b    3.1919424      (Ang^2)                                    |
 | The following shells are used:   1                                         |
 +----------------------------------------------------------------------------+
 |                        Shell   # Nearest-Neighbours                        |
 |                        -----   --------------------                        |
 |                          1               6                                 |
 +----------------------------------------------------------------------------+
 | Completeness relation is fully satisfied [Eq. (B1), PRB 56, 12847 (1997)]  |
 +----------------------------------------------------------------------------+
 |                  b_k Vectors (Ang^-1) and Weights (Ang^2)                  |
 |                  ----------------------------------------                  |
 |            No.         b_k(x)      b_k(y)      b_k(z)        w_b           |
 |            ---        --------------------------------     --------        |
 |             1         0.395783    0.000000    0.000000     3.191942        |
 |             2         0.000000    0.395783    0.000000     3.191942        |
 |             3         0.000000    0.000000    0.395783     3.191942        |
 |             4         0.000000    0.000000   -0.395783     3.191942        |
 |             5         0.000000   -0.395783    0.000000     3.191942        |
 |             6        -0.395783    0.000000    0.000000     3.191942        |
 +----------------------------------------------------------------------------+
 |                           b_k Directions (Ang^-1)                          |
 |                           -----------------------                          |
 |            No.           x           y           z                         |
 |            ---        --------------------------------                     |
 |             1         0.395783    0.000000    0.000000                     |
 |             2         0.000000    0.395783    0.000000                     |
 |             3         0.000000    0.000000    0.395783                     |
 +----------------------------------------------------------------------------+
  
 +----------------------------------------------------------------------------+
 |        Gamma-point: number of the b-vectors is reduced by half             |
 +----------------------------------------------------------------------------+
 |                  b_k Vectors (Ang^-1) and Weights (Ang^2)                  |
 |                  ----------------------------------------                  |
 |            No.         b_k(x)      b_k(y)      b_k(z)        w_b           |
 |            ---        --------------------------------     --------        |
 |             1         0.395783    0.000000    0.000000     6.383885        |
 |             2         0.000000    0.395783    0.000000     6.383885        |
 |             3         0.000000    0.000000    0.395783     6.383885        |
 +----------------------------------------------------------------------------+
  
 *============================================================================*
 |                              MEMORY ESTIMATE                               |
 |         Maximum RAM allocated during each phase of the calculation         |
 *============================================================================*
 |                        Disentanglement            0.83 Mb                  |
 |                            Wannierise:            0.13 Mb                  |
 |                                                                            |
 |   N.B. by setting optimisation=0 memory usage will be reduced to:          |
 |                        Disentanglement            0.83 Mb                  |
 |                            Wannierise:            0.13 Mb                  |
 |   However, this will result in more i/o and slow down the calculation      |
 |                          plot_wannier:            0.13 Mb                  |
 *----------------------------------------------------------------------------*
  
 Starting a new Wannier90 calculation ...

 Time to get kmesh              0.005 (sec)

 Reading overlaps from benzene.mmn    :  Created on 14Sep2016 at 16:50: 9

 Reading projections from benzene.amn :  Created on 14Sep2016 at 16:49:46

 Time to read overlaps          0.039 (sec)

 *------------------------------- DISENTANGLE --------------------------------*
 +----------------------------------------------------------------------------+
 |                              Energy  Windows                               |
 |                              ---------------                               |
 |                   Outer:  -21.02404  to    4.00000  (eV)                   |
 |                   Inner:  -21.02404  to   -6.00000  (eV)                   |
 +----------------------------------------------------------------------------+
 |                        K-points with Frozen States                         |
 |                        ---------------------------                         |
 |     1                                                                      |
 +----------------------------------------------------------------------------+
   Number of target bands to extract:   18
 +----------------------------------------------------------------------------+
 |                                  Windows                                   |
 |                                  -------                                   |
 |               K-point      Ndimwin     Ndimfroz    Nfirstwin               |
 |               ----------------------------------------------               |
 |                   1           90           15           1                  |
 +----------------------------------------------------------------------------+

                   Unitarised projection of Wannier functions                  
                   ------------------------------------------                  
   A_mn = <psi_m|g_n> --> S = A.A^+ --> U = S^-1/2.A
   In dis_project... done
   Using an inner window (linner = T)
   In dis_proj_froz... done

                   Extraction of optimally-connected subspace                  
                   ------------------------------------------                  
 +---------------------------------------------------------------------+<-- DIS
 |  Iter     Omega_I(i-1)      Omega_I(i)      Delta (frac.)    Time   |<-- DIS
 +---------------------------------------------------------------------+<-- DIS
       1      37.91173892      37.46249168       1.199E-02      0.06    <-- DIS
       2      36.19915454      30.81434259       1.748E-01      0.07    <-- DIS
       3      33.41246439      30.24379457       1.048E-01      0.07    <-- DIS
       4      31.79418531      30.00650783       5.958E-02      0.08    <-- DIS
       5      30.88170530      29.87268287       3.378E-02      0.09    <-- DIS
       6      30.36559407      29.78762373       1.940E-02      0.09    <-- DIS
       7      30.06863824      29.72798593       1.146E-02      0.10    <-- DIS
       8      29.89232234      29.68234988       7.074E-03      0.10    <-- DIS
       9      29.78247812      29.64479633       4.644E-03      0.10    <-- DIS
      10      29.70945765      29.61214847       3.286E-03      0.11    <-- DIS
      11      29.65705380      29.58265923       2.515E-03      0.11    <-- DIS
      12      29.61639909      29.55534778       2.066E-03      0.12    <-- DIS
      13      29.58262891      29.52965129       1.794E-03      0.12    <-- DIS
      14      29.55306234      29.50523783       1.621E-03      0.13    <-- DIS
      15      29.52621120      29.48190431       1.503E-03      0.13    <-- DIS
      16      29.50124009      29.45952034       1.416E-03      0.14    <-- DIS
      17      29.47767192      29.43799712       1.348E-03      0.14    <-- DIS
      18      29.45522712      29.41727022       1.290E-03      0.14    <-- DIS
      19      29.43373572      29.39729011       1.240E-03      0.15    <-- DIS
      20      29.41308926      29.37801682       1.194E-03      0.15    <-- DIS
      21      29.39321438      29.35941704       1.151E-03      0.16    <-- DIS
      22      29.37405841      29.34146246       1.111E-03      0.16    <-- DIS
      23      29.35558136      29.32412875       1.073E-03      0.17    <-- DIS
      24      29.33775149      29.30739492       1.036E-03      0.17    <-- DIS
      25      29.32054281      29.29124282       1.000E-03      0.18    <-- DIS
      26      29.30393356      29.27565675       9.659E-04      0.18    <-- DIS
      27      29.28790526      29.26062305       9.324E-04      0.18    <-- DIS
      28      29.27244208      29.24612975       8.997E-04      0.19    <-- DIS
      29      29.25753027      29.23216620       8.677E-04      0.19    <-- DIS
      30      29.24315780      29.21872276       8.363E-04      0.20    <-- DIS
      31      29.22931389      29.20579046       8.054E-04      0.20    <-- DIS
      32      29.21598875      29.19336070       7.751E-04      0.21    <-- DIS
      33      29.20317320      29.18142508       7.453E-04      0.21    <-- DIS
      34      29.19085844      29.16997508       7.159E-04      0.21    <-- DIS
      35      29.17903581      29.15900199       6.871E-04      0.22    <-- DIS
      36      29.16769656      29.14849671       6.587E-04      0.22    <-- DIS
      37      29.15683173      29.13844968       6.309E-04      0.23    <-- DIS
      38      29.14643198      29.12885084       6.036E-04      0.23    <-- DIS
      39      29.13648756      29.11968958       5.769E-04      0.24    <-- DIS
      40      29.12698821      29.11095477       5.508E-04      0.24    <-- DIS
      41      29.11792318      29.10263473       5.253E-04      0.24    <-- DIS
      42      29.10928119      29.09471734       5.006E-04      0.25    <-- DIS
      43      29.10105049      29.08719007       4.765E-04      0.25    <-- DIS
      44      29.09321890      29.08004002       4.532E-04      0.26    <-- DIS
      45      29.08577383      29.07325405       4.306E-04      0.26    <-- DIS
      46      29.07870240      29.06681879       4.088E-04      0.27    <-- DIS
      47      29.07199147      29.06072077       3.878E-04      0.27    <-- DIS
      48      29.06562773      29.05494650       3.676E-04      0.27    <-- DIS
      49      29.05959776      29.04948247       3.482E-04      0.28    <-- DIS
      50      29.05388814      29.04431531       3.296E-04      0.28    <-- DIS
      51      29.04848546      29.03943177       3.118E-04      0.29    <-- DIS
      52      29.04337644      29.03481885       2.947E-04      0.29    <-- DIS
      53      29.03854796      29.03046377       2.785E-04      0.30    <-- DIS
      54      29.03398710      29.02635408       2.630E-04      0.30    <-- DIS
      55      29.02968123      29.02247764       2.482E-04      0.31    <-- DIS
      56      29.02561799      29.01882268       2.342E-04      0.31    <-- DIS
      57      29.02178539      29.01537782       2.208E-04      0.31    <-- DIS
      58      29.01817177      29.01213209       2.082E-04      0.32    <-- DIS
      59      29.01476588      29.00907491       1.962E-04      0.32    <-- DIS
      60      29.01155685      29.00619613       1.848E-04      0.33    <-- DIS
      61      29.00853423      29.00348603       1.741E-04      0.33    <-- DIS
      62      29.00568798      29.00093531       1.639E-04      0.34    <-- DIS
      63      29.00300848      28.99853508       1.543E-04      0.34    <-- DIS
      64      29.00048655      28.99627688       1.452E-04      0.34    <-- DIS
      65      28.99811339      28.99415266       1.366E-04      0.35    <-- DIS
      66      28.99588065      28.99215474       1.285E-04      0.35    <-- DIS
      67      28.99378034      28.99027586       1.209E-04      0.36    <-- DIS
      68      28.99180490      28.98850911       1.137E-04      0.36    <-- DIS
      69      28.98994715      28.98684796       1.069E-04      0.37    <-- DIS
      70      28.98820024      28.98528623       1.005E-04      0.37    <-- DIS
      71      28.98655774      28.98381805       9.452E-05      0.37    <-- DIS
      72      28.98501351      28.98243789       8.887E-05      0.38    <-- DIS
      73      28.98356177      28.98114053       8.355E-05      0.38    <-- DIS
      74      28.98219705      28.97992104       7.854E-05      0.39    <-- DIS
      75      28.98091420      28.97877476       7.383E-05      0.39    <-- DIS
      76      28.97970832      28.97769730       6.940E-05      0.40    <-- DIS
      77      28.97857482      28.97668454       6.523E-05      0.40    <-- DIS
      78      28.97750937      28.97573258       6.132E-05      0.41    <-- DIS
      79      28.97650788      28.97483774       5.764E-05      0.41    <-- DIS
      80      28.97556649      28.97399658       5.418E-05      0.41    <-- DIS
      81      28.97468158      28.97320584       5.093E-05      0.42    <-- DIS
      82      28.97384975      28.97246248       4.788E-05      0.42    <-- DIS
      83      28.97306776      28.97176361       4.501E-05      0.43    <-- DIS
      84      28.97233262      28.97110654       4.232E-05      0.43    <-- DIS
      85      28.97164146      28.97048871       3.979E-05      0.44    <-- DIS
      86      28.97099163      28.96990775       3.741E-05      0.44    <-- DIS
      87      28.97038060      28.96936140       3.518E-05      0.44    <-- DIS
      88      28.96980602      28.96884756       3.309E-05      0.45    <-- DIS
      89      28.96926566      28.96836424       3.112E-05      0.45    <-- DIS
      90      28.96875744      28.96790959       2.927E-05      0.46    <-- DIS
      91      28.96827941      28.96748186       2.753E-05      0.46    <-- DIS
      92      28.96782972      28.96707940       2.590E-05      0.47    <-- DIS
      93      28.96740664      28.96670067       2.437E-05      0.47    <-- DIS
      94      28.96700855      28.96634422       2.293E-05      0.47    <-- DIS
      95      28.96663392      28.96600869       2.158E-05      0.48    <-- DIS
      96      28.96628132      28.96569282       2.032E-05      0.48    <-- DIS
      97      28.96594942      28.96539539       1.913E-05      0.49    <-- DIS
      98      28.96563694      28.96511528       1.801E-05      0.49    <-- DIS
      99      28.96534270      28.96485144       1.696E-05      0.50    <-- DIS
     100      28.96506559      28.96460287       1.598E-05      0.50    <-- DIS
     101      28.96480456      28.96436865       1.505E-05      0.51    <-- DIS
     102      28.96455864      28.96414791       1.418E-05      0.51    <-- DIS
     103      28.96432690      28.96393981       1.336E-05      0.51    <-- DIS
     104      28.96410848      28.96374359       1.260E-05      0.52    <-- DIS
     105      28.96390258      28.96355854       1.188E-05      0.52    <-- DIS
     106      28.96370842      28.96338396       1.120E-05      0.53    <-- DIS
     107      28.96352530      28.96321923       1.057E-05      0.53    <-- DIS
     108      28.96335254      28.96306375       9.971E-06      0.54    <-- DIS
     109      28.96318952      28.96291696       9.410E-06      0.54    <-- DIS
     110      28.96303564      28.96277833       8.884E-06      0.54    <-- DIS
     111      28.96289036      28.96264737       8.390E-06      0.55    <-- DIS
     112      28.96275314      28.96252361       7.925E-06      0.55    <-- DIS
     113      28.96262351      28.96240663       7.489E-06      0.56    <-- DIS
     114      28.96250101      28.96229600       7.078E-06      0.56    <-- DIS
     115      28.96238520      28.96219136       6.693E-06      0.57    <-- DIS
     116      28.96227568      28.96209233       6.331E-06      0.57    <-- DIS
     117      28.96217208      28.96199859       5.990E-06      0.58    <-- DIS
     118      28.96207403      28.96190982       5.670E-06      0.58    <-- DIS
     119      28.96198121      28.96182571       5.369E-06      0.58    <-- DIS
     120      28.96189330      28.96174599       5.086E-06      0.59    <-- DIS
     121      28.96181001      28.96167040       4.820E-06      0.59    <-- DIS
     122      28.96173106      28.96159870       4.570E-06      0.60    <-- DIS
     123      28.96165619      28.96153064       4.335E-06      0.60    <-- DIS
     124      28.96158517      28.96146602       4.114E-06      0.61    <-- DIS
     125      28.96151775      28.96140464       3.906E-06      0.61    <-- DIS
     126      28.96145374      28.96134629       3.710E-06      0.61    <-- DIS
     127      28.96139292      28.96129081       3.526E-06      0.62    <-- DIS
     128      28.96133511      28.96123802       3.352E-06      0.62    <-- DIS
     129      28.96128013      28.96118777       3.189E-06      0.63    <-- DIS
     130      28.96122782      28.96113991       3.036E-06      0.63    <-- DIS
     131      28.96117802      28.96109429       2.891E-06      0.64    <-- DIS
     132      28.96113057      28.96105080       2.755E-06      0.64    <-- DIS
     133      28.96108536      28.96100930       2.626E-06      0.65    <-- DIS
     134      28.96104224      28.96096968       2.505E-06      0.65    <-- DIS
     135      28.96100110      28.96093184       2.391E-06      0.65    <-- DIS
     136      28.96096181      28.96089566       2.284E-06      0.66    <-- DIS
     137      28.96092428      28.96086106       2.183E-06      0.66    <-- DIS
     138      28.96088841      28.96082795       2.087E-06      0.67    <-- DIS
     139      28.96085409      28.96079625       1.997E-06      0.67    <-- DIS
     140      28.96082125      28.96076586       1.913E-06      0.68    <-- DIS
     141      28.96078979      28.96073672       1.832E-06      0.68    <-- DIS
     142      28.96075965      28.96070877       1.757E-06      0.68    <-- DIS
     143      28.96073073      28.96068193       1.685E-06      0.69    <-- DIS
     144      28.96070299      28.96065614       1.618E-06      0.69    <-- DIS
     145      28.96067635      28.96063134       1.554E-06      0.70    <-- DIS
     146      28.96065075      28.96060749       1.494E-06      0.70    <-- DIS
     147      28.96062614      28.96058452       1.437E-06      0.71    <-- DIS
     148      28.96060246      28.96056240       1.383E-06      0.71    <-- DIS
     149      28.96057966      28.96054107       1.332E-06      0.71    <-- DIS
     150      28.96055769      28.96052050       1.284E-06      0.72    <-- DIS
     151      28.96053651      28.96050064       1.238E-06      0.72    <-- DIS
     152      28.96051607      28.96048146       1.195E-06      0.73    <-- DIS
     153      28.96049635      28.96046292       1.154E-06      0.73    <-- DIS
     154      28.96047729      28.96044499       1.116E-06      0.74    <-- DIS
     155      28.96045887      28.96042763       1.079E-06      0.74    <-- DIS
     156      28.96044105      28.96041082       1.044E-06      0.74    <-- DIS
     157      28.96042381      28.96039454       1.011E-06      0.75    <-- DIS
     158      28.96040711      28.96037875       9.792E-07      0.75    <-- DIS
     159      28.96039092      28.96036342       9.493E-07      0.76    <-- DIS
     160      28.96037522      28.96034855       9.209E-07      0.76    <-- DIS
     161      28.96035999      28.96033410       8.939E-07      0.77    <-- DIS
     162      28.96034520      28.96032006       8.682E-07      0.77    <-- DIS
     163      28.96033083      28.96030640       8.437E-07      0.78    <-- DIS
     164      28.96031687      28.96029311       8.204E-07      0.78    <-- DIS
     165      28.96030328      28.96028017       7.982E-07      0.78    <-- DIS
     166      28.96029006      28.96026756       7.770E-07      0.79    <-- DIS
     167      28.96027719      28.96025528       7.568E-07      0.79    <-- DIS
     168      28.96026465      28.96024330       7.375E-07      0.80    <-- DIS
     169      28.96025243      28.96023161       7.190E-07      0.80    <-- DIS
     170      28.96024051      28.96022020       7.014E-07      0.81    <-- DIS
     171      28.96022888      28.96020906       6.845E-07      0.81    <-- DIS
     172      28.96021753      28.96019817       6.684E-07      0.81    <-- DIS
     173      28.96020644      28.96018753       6.529E-07      0.82    <-- DIS
     174      28.96019561      28.96017713       6.381E-07      0.82    <-- DIS
     175      28.96018502      28.96016695       6.239E-07      0.83    <-- DIS
     176      28.96017467      28.96015699       6.103E-07      0.83    <-- DIS
     177      28.96016453      28.96014724       5.972E-07      0.84    <-- DIS
     178      28.96015462      28.96013769       5.846E-07      0.84    <-- DIS
     179      28.96014491      28.96012833       5.725E-07      0.84    <-- DIS
     180      28.96013540      28.96011916       5.609E-07      0.85    <-- DIS
     181      28.96012608      28.96011016       5.497E-07      0.85    <-- DIS
     182      28.96011695      28.96010134       5.389E-07      0.86    <-- DIS
     183      28.96010799      28.96009269       5.285E-07      0.86    <-- DIS
     184      28.96009921      28.96008419       5.185E-07      0.87    <-- DIS
     185      28.96009059      28.96007585       5.088E-07      0.87    <-- DIS
     186      28.96008213      28.96006767       4.994E-07      0.87    <-- DIS
     187      28.96007383      28.96005962       4.904E-07      0.88    <-- DIS
     188      28.96006567      28.96005172       4.816E-07      0.88    <-- DIS
     189      28.96005766      28.96004396       4.732E-07      0.89    <-- DIS
     190      28.96004979      28.96003632       4.650E-07      0.89    <-- DIS
     191      28.96004205      28.96002882       4.570E-07      0.90    <-- DIS
     192      28.96003445      28.96002144       4.493E-07      0.90    <-- DIS
     193      28.96002697      28.96001418       4.418E-07      0.91    <-- DIS
     194      28.96001962      28.96000704       4.346E-07      0.91    <-- DIS
     195      28.96001239      28.96000001       4.275E-07      0.91    <-- DIS
     196      28.96000527      28.95999309       4.206E-07      0.92    <-- DIS
     197      28.95999827      28.95998628       4.140E-07      0.92    <-- DIS
     198      28.95999138      28.95997958       4.075E-07      0.93    <-- DIS
     199      28.95998459      28.95997298       4.012E-07      0.93    <-- DIS
     200      28.95997791      28.95996647       3.950E-07      0.94    <-- DIS
     201      28.95997134      28.95996007       3.890E-07      0.94    <-- DIS
     202      28.95996486      28.95995376       3.832E-07      0.94    <-- DIS
     203      28.95995847      28.95994754       3.775E-07      0.95    <-- DIS
     204      28.95995219      28.95994142       3.719E-07      0.95    <-- DIS
     205      28.95994599      28.95993538       3.664E-07      0.96    <-- DIS
     206      28.95993989      28.95992943       3.611E-07      0.96    <-- DIS
     207      28.95993387      28.95992356       3.559E-07      0.97    <-- DIS
     208      28.95992794      28.95991778       3.508E-07      0.97    <-- DIS
     209      28.95992210      28.95991208       3.459E-07      0.97    <-- DIS
     210      28.95991633      28.95990646       3.410E-07      0.98    <-- DIS
     211      28.95991065      28.95990091       3.362E-07      0.98    <-- DIS
     212      28.95990505      28.95989545       3.315E-07      0.99    <-- DIS
     213      28.95989952      28.95989005       3.270E-07      0.99    <-- DIS
     214      28.95989407      28.95988473       3.225E-07      1.00    <-- DIS
     215      28.95988870      28.95987949       3.181E-07      1.00    <-- DIS
     216      28.95988339      28.95987431       3.138E-07      1.00    <-- DIS
     217      28.95987816      28.95986920       3.095E-07      1.01    <-- DIS
     218      28.95987300      28.95986416       3.054E-07      1.01    <-- DIS
     219      28.95986791      28.95985919       3.013E-07      1.02    <-- DIS
     220      28.95986289      28.95985428       2.973E-07      1.02    <-- DIS
     221      28.95985793      28.95984944       2.934E-07      1.03    <-- DIS
     222      28.95985304      28.95984466       2.895E-07      1.03    <-- DIS
     223      28.95984821      28.95983994       2.857E-07      1.04    <-- DIS
     224      28.95984345      28.95983529       2.820E-07      1.04    <-- DIS
     225      28.95983875      28.95983069       2.783E-07      1.04    <-- DIS
     226      28.95983411      28.95982615       2.747E-07      1.05    <-- DIS
     227      28.95982953      28.95982168       2.711E-07      1.05    <-- DIS
     228      28.95982501      28.95981726       2.676E-07      1.06    <-- DIS
     229      28.95982054      28.95981289       2.642E-07      1.06    <-- DIS
     230      28.95981614      28.95980858       2.608E-07      1.07    <-- DIS
     231      28.95981179      28.95980433       2.575E-07      1.07    <-- DIS
     232      28.95980749      28.95980013       2.542E-07      1.07    <-- DIS
     233      28.95980325      28.95979599       2.509E-07      1.08    <-- DIS
     234      28.95979907      28.95979189       2.478E-07      1.08    <-- DIS
     235      28.95979494      28.95978785       2.446E-07      1.09    <-- DIS
     236      28.95979086      28.95978386       2.415E-07      1.09    <-- DIS
     237      28.95978683      28.95977992       2.385E-07      1.10    <-- DIS
     238      28.95978285      28.95977603       2.355E-07      1.10    <-- DIS
     239      28.95977892      28.95977219       2.325E-07      1.10    <-- DIS
     240      28.95977504      28.95976839       2.296E-07      1.11    <-- DIS
     241      28.95977121      28.95976465       2.267E-07      1.11    <-- DIS
     242      28.95976743      28.95976094       2.239E-07      1.12    <-- DIS
     243      28.95976369      28.95975729       2.211E-07      1.12    <-- DIS
     244      28.95976000      28.95975368       2.183E-07      1.13    <-- DIS
     245      28.95975636      28.95975012       2.156E-07      1.13    <-- DIS
     246      28.95975276      28.95974660       2.129E-07      1.13    <-- DIS
     247      28.95974921      28.95974312       2.103E-07      1.14    <-- DIS
     248      28.95974570      28.95973969       2.077E-07      1.14    <-- DIS
     249      28.95974224      28.95973630       2.051E-07      1.15    <-- DIS
     250      28.95973882      28.95973295       2.026E-07      1.15    <-- DIS
     251      28.95973544      28.95972964       2.001E-07      1.16    <-- DIS
     252      28.95973210      28.95972638       1.976E-07      1.16    <-- DIS
     253      28.95972880      28.95972315       1.951E-07      1.16    <-- DIS
     254      28.95972554      28.95971996       1.927E-07      1.17    <-- DIS
     255      28.95972233      28.95971681       1.904E-07      1.17    <-- DIS
     256      28.95971915      28.95971371       1.880E-07      1.18    <-- DIS
     257      28.95971601      28.95971064       1.857E-07      1.18    <-- DIS
     258      28.95971291      28.95970760       1.834E-07      1.19    <-- DIS
     259      28.95970985      28.95970461       1.812E-07      1.19    <-- DIS
     260      28.95970683      28.95970165       1.789E-07      1.20    <-- DIS
     261      28.95970384      28.95969873       1.767E-07      1.20    <-- DIS
     262      28.95970090      28.95969584       1.746E-07      1.20    <-- DIS
     263      28.95969798      28.95969299       1.724E-07      1.21    <-- DIS
     264      28.95969510      28.95969017       1.703E-07      1.21    <-- DIS
     265      28.95969226      28.95968739       1.682E-07      1.22    <-- DIS
     266      28.95968945      28.95968464       1.661E-07      1.22    <-- DIS
     267      28.95968668      28.95968193       1.641E-07      1.23    <-- DIS
     268      28.95968394      28.95967925       1.621E-07      1.23    <-- DIS
     269      28.95968124      28.95967660       1.601E-07      1.23    <-- DIS
     270      28.95967856      28.95967398       1.581E-07      1.24    <-- DIS
     271      28.95967593      28.95967140       1.562E-07      1.24    <-- DIS
     272      28.95967332      28.95966885       1.543E-07      1.25    <-- DIS
     273      28.95967074      28.95966633       1.524E-07      1.25    <-- DIS
     274      28.95966820      28.95966384       1.505E-07      1.26    <-- DIS
     275      28.95966569      28.95966138       1.487E-07      1.26    <-- DIS
     276      28.95966320      28.95965895       1.469E-07      1.26    <-- DIS
     277      28.95966075      28.95965655       1.451E-07      1.27    <-- DIS
     278      28.95965833      28.95965418       1.433E-07      1.27    <-- DIS
     279      28.95965594      28.95965184       1.416E-07      1.28    <-- DIS
     280      28.95965357      28.95964952       1.398E-07      1.28    <-- DIS
     281      28.95965124      28.95964724       1.381E-07      1.29    <-- DIS
     282      28.95964893      28.95964498       1.364E-07      1.29    <-- DIS
     283      28.95964666      28.95964275       1.348E-07      1.29    <-- DIS
     284      28.95964441      28.95964055       1.331E-07      1.30    <-- DIS
     285      28.95964218      28.95963838       1.315E-07      1.30    <-- DIS
     286      28.95963999      28.95963623       1.299E-07      1.31    <-- DIS
     287      28.95963782      28.95963411       1.283E-07      1.31    <-- DIS
     288      28.95963568      28.95963201       1.267E-07      1.32    <-- DIS
     289      28.95963356      28.95962994       1.252E-07      1.32    <-- DIS
     290      28.95963147      28.95962789       1.236E-07      1.33    <-- DIS
     291      28.95962941      28.95962587       1.221E-07      1.33    <-- DIS
     292      28.95962737      28.95962388       1.206E-07      1.33    <-- DIS
     293      28.95962536      28.95962191       1.192E-07      1.34    <-- DIS
     294      28.95962337      28.95961996       1.177E-07      1.34    <-- DIS
     295      28.95962140      28.95961804       1.163E-07      1.35    <-- DIS
     296      28.95961946      28.95961614       1.148E-07      1.35    <-- DIS
     297      28.95961754      28.95961426       1.134E-07      1.36    <-- DIS
     298      28.95961565      28.95961240       1.120E-07      1.36    <-- DIS
     299      28.95961378      28.95961057       1.107E-07      1.36    <-- DIS
     300      28.95961193      28.95960876       1.093E-07      1.37    <-- DIS
     301      28.95961010      28.95960698       1.080E-07      1.37    <-- DIS
     302      28.95960830      28.95960521       1.067E-07      1.38    <-- DIS
     303      28.95960652      28.95960347       1.054E-07      1.38    <-- DIS
     304      28.95960476      28.95960175       1.041E-07      1.39    <-- DIS
     305      28.95960302      28.95960005       1.028E-07      1.39    <-- DIS
     306      28.95960131      28.95959836       1.015E-07      1.39    <-- DIS
     307      28.95959961      28.95959670       1.003E-07      1.40    <-- DIS
     308      28.95959793      28.95959507       9.907E-08      1.40    <-- DIS
     309      28.95959628      28.95959345       9.786E-08      1.41    <-- DIS
     310      28.95959465      28.95959185       9.666E-08      1.41    <-- DIS
     311      28.95959303      28.95959027       9.548E-08      1.42    <-- DIS
     312      28.95959144      28.95958871       9.431E-08      1.42    <-- DIS
     313      28.95958986      28.95958716       9.315E-08      1.42    <-- DIS
     314      28.95958831      28.95958564       9.201E-08      1.43    <-- DIS
     315      28.95958677      28.95958414       9.089E-08      1.43    <-- DIS
     316      28.95958525      28.95958265       8.977E-08      1.44    <-- DIS
     317      28.95958375      28.95958118       8.867E-08      1.44    <-- DIS
     318      28.95958227      28.95957973       8.759E-08      1.45    <-- DIS
     319      28.95958081      28.95957830       8.652E-08      1.45    <-- DIS
     320      28.95957936      28.95957689       8.546E-08      1.46    <-- DIS
     321      28.95957793      28.95957549       8.441E-08      1.46    <-- DIS
     322      28.95957652      28.95957411       8.338E-08      1.46    <-- DIS
     323      28.95957513      28.95957275       8.235E-08      1.47    <-- DIS
     324      28.95957375      28.95957140       8.134E-08      1.47    <-- DIS
     325      28.95957240      28.95957007       8.035E-08      1.48    <-- DIS
     326      28.95957105      28.95956875       7.936E-08      1.48    <-- DIS
     327      28.95956973      28.95956746       7.839E-08      1.49    <-- DIS
     328      28.95956842      28.95956618       7.743E-08      1.49    <-- DIS
     329      28.95956712      28.95956491       7.648E-08      1.49    <-- DIS
     330      28.95956585      28.95956366       7.554E-08      1.50    <-- DIS
     331      28.95956458      28.95956242       7.462E-08      1.50    <-- DIS
     332      28.95956334      28.95956120       7.370E-08      1.51    <-- DIS
     333      28.95956211      28.95956000       7.280E-08      1.51    <-- DIS
     334      28.95956089      28.95955881       7.191E-08      1.52    <-- DIS
     335      28.95955969      28.95955763       7.102E-08      1.52    <-- DIS
     336      28.95955850      28.95955647       7.015E-08      1.52    <-- DIS
     337      28.95955733      28.95955532       6.929E-08      1.53    <-- DIS
     338      28.95955617      28.95955419       6.844E-08      1.53    <-- DIS
     339      28.95955503      28.95955307       6.760E-08      1.54    <-- DIS
     340      28.95955390      28.95955196       6.677E-08      1.54    <-- DIS
     341      28.95955278      28.95955087       6.596E-08      1.55    <-- DIS
     342      28.95955168      28.95954979       6.515E-08      1.55    <-- DIS
     343      28.95955059      28.95954873       6.435E-08      1.55    <-- DIS
     344      28.95954951      28.95954767       6.356E-08      1.56    <-- DIS
     345      28.95954845      28.95954663       6.278E-08      1.56    <-- DIS
     346      28.95954740      28.95954561       6.201E-08      1.57    <-- DIS
     347      28.95954637      28.95954459       6.124E-08      1.57    <-- DIS
     348      28.95954534      28.95954359       6.049E-08      1.58    <-- DIS
     349      28.95954433      28.95954260       5.975E-08      1.58    <-- DIS
     350      28.95954333      28.95954162       5.902E-08      1.59    <-- DIS
     351      28.95954235      28.95954066       5.829E-08      1.59    <-- DIS
     352      28.95954137      28.95953970       5.758E-08      1.59    <-- DIS
     353      28.95954041      28.95953876       5.687E-08      1.60    <-- DIS
     354      28.95953946      28.95953783       5.617E-08      1.60    <-- DIS
     355      28.95953852      28.95953691       5.548E-08      1.61    <-- DIS
     356      28.95953759      28.95953601       5.480E-08      1.61    <-- DIS
     357      28.95953668      28.95953511       5.413E-08      1.62    <-- DIS
     358      28.95953577      28.95953422       5.346E-08      1.62    <-- DIS
     359      28.95953488      28.95953335       5.280E-08      1.63    <-- DIS
     360      28.95953399      28.95953248       5.215E-08      1.63    <-- DIS
     361      28.95953312      28.95953163       5.151E-08      1.64    <-- DIS
     362      28.95953226      28.95953079       5.088E-08      1.64    <-- DIS
     363      28.95953141      28.95952996       5.026E-08      1.65    <-- DIS
     364      28.95953057      28.95952913       4.964E-08      1.65    <-- DIS
     365      28.95952974      28.95952832       4.903E-08      1.65    <-- DIS
     366      28.95952892      28.95952752       4.842E-08      1.66    <-- DIS
     367      28.95952811      28.95952673       4.783E-08      1.66    <-- DIS
     368      28.95952731      28.95952594       4.724E-08      1.67    <-- DIS
     369      28.95952652      28.95952517       4.666E-08      1.67    <-- DIS
     370      28.95952574      28.95952441       4.609E-08      1.68    <-- DIS
     371      28.95952497      28.95952365       4.552E-08      1.68    <-- DIS
     372      28.95952421      28.95952291       4.496E-08      1.68    <-- DIS
     373      28.95952346      28.95952217       4.441E-08      1.69    <-- DIS
     374      28.95952271      28.95952144       4.386E-08      1.69    <-- DIS
     375      28.95952198      28.95952073       4.332E-08      1.70    <-- DIS
     376      28.95952126      28.95952002       4.279E-08      1.70    <-- DIS
     377      28.95952054      28.95951932       4.226E-08      1.71    <-- DIS
     378      28.95951983      28.95951862       4.174E-08      1.71    <-- DIS
     379      28.95951913      28.95951794       4.123E-08      1.72    <-- DIS
     380      28.95951845      28.95951727       4.072E-08      1.72    <-- DIS
     381      28.95951776      28.95951660       4.022E-08      1.72    <-- DIS
     382      28.95951709      28.95951594       3.972E-08      1.73    <-- DIS
     383      28.95951643      28.95951529       3.924E-08      1.73    <-- DIS
     384      28.95951577      28.95951465       3.875E-08      1.74    <-- DIS
     385      28.95951512      28.95951401       3.828E-08      1.74    <-- DIS
     386      28.95951448      28.95951339       3.780E-08      1.75    <-- DIS
     387      28.95951385      28.95951277       3.734E-08      1.75    <-- DIS
     388      28.95951322      28.95951216       3.688E-08      1.75    <-- DIS
     389      28.95951261      28.95951155       3.642E-08      1.76    <-- DIS
     390      28.95951200      28.95951096       3.598E-08      1.76    <-- DIS
     391      28.95951140      28.95951037       3.553E-08      1.77    <-- DIS
     392      28.95951080      28.95950979       3.510E-08      1.77    <-- DIS
     393      28.95951021      28.95950921       3.466E-08      1.78    <-- DIS
     394      28.95950963      28.95950864       3.424E-08      1.78    <-- DIS
     395      28.95950906      28.95950808       3.381E-08      1.78    <-- DIS
     396      28.95950850      28.95950753       3.340E-08      1.79    <-- DIS
     397      28.95950794      28.95950698       3.299E-08      1.79    <-- DIS
     398      28.95950738      28.95950644       3.258E-08      1.80    <-- DIS
     399      28.95950684      28.95950591       3.218E-08      1.80    <-- DIS
     400      28.95950630      28.95950538       3.178E-08      1.81    <-- DIS
     401      28.95950577      28.95950486       3.139E-08      1.81    <-- DIS
     402      28.95950524      28.95950435       3.100E-08      1.82    <-- DIS
     403      28.95950472      28.95950384       3.062E-08      1.82    <-- DIS
     404      28.95950421      28.95950334       3.024E-08      1.82    <-- DIS
     405      28.95950371      28.95950284       2.987E-08      1.83    <-- DIS
     406      28.95950321      28.95950235       2.950E-08      1.83    <-- DIS
     407      28.95950271      28.95950187       2.914E-08      1.84    <-- DIS
     408      28.95950222      28.95950139       2.878E-08      1.84    <-- DIS
     409      28.95950174      28.95950092       2.843E-08      1.85    <-- DIS
     410      28.95950127      28.95950045       2.807E-08      1.85    <-- DIS
     411      28.95950080      28.95949999       2.773E-08      1.85    <-- DIS
     412      28.95950033      28.95949954       2.739E-08      1.86    <-- DIS
     413      28.95949987      28.95949909       2.705E-08      1.86    <-- DIS
     414      28.95949942      28.95949865       2.672E-08      1.87    <-- DIS
     415      28.95949897      28.95949821       2.639E-08      1.87    <-- DIS
     416      28.95949853      28.95949778       2.606E-08      1.88    <-- DIS
     417      28.95949809      28.95949735       2.574E-08      1.88    <-- DIS
     418      28.95949766      28.95949693       2.542E-08      1.88    <-- DIS
     419      28.95949724      28.95949651       2.511E-08      1.89    <-- DIS
     420      28.95949682      28.95949610       2.480E-08      1.89    <-- DIS
     421      28.95949640      28.95949569       2.449E-08      1.90    <-- DIS
     422      28.95949599      28.95949529       2.419E-08      1.90    <-- DIS
     423      28.95949559      28.95949489       2.389E-08      1.91    <-- DIS
     424      28.95949519      28.95949450       2.360E-08      1.91    <-- DIS
     425      28.95949479      28.95949412       2.331E-08      1.92    <-- DIS
     426      28.95949440      28.95949373       2.302E-08      1.92    <-- DIS
     427      28.95949401      28.95949336       2.273E-08      1.92    <-- DIS
     428      28.95949363      28.95949298       2.245E-08      1.93    <-- DIS
     429      28.95949326      28.95949262       2.218E-08      1.93    <-- DIS
     430      28.95949289      28.95949225       2.190E-08      1.94    <-- DIS
     431      28.95949252      28.95949189       2.163E-08      1.94    <-- DIS
     432      28.95949216      28.95949154       2.136E-08      1.95    <-- DIS
     433      28.95949180      28.95949119       2.110E-08      1.95    <-- DIS
     434      28.95949144      28.95949084       2.084E-08      1.95    <-- DIS
     435      28.95949110      28.95949050       2.058E-08      1.96    <-- DIS
     436      28.95949075      28.95949016       2.033E-08      1.96    <-- DIS
     437      28.95949041      28.95948983       2.008E-08      1.97    <-- DIS
     438      28.95949007      28.95948950       1.983E-08      1.97    <-- DIS
     439      28.95948974      28.95948917       1.959E-08      1.98    <-- DIS
     440      28.95948941      28.95948885       1.934E-08      1.98    <-- DIS
     441      28.95948909      28.95948854       1.910E-08      1.98    <-- DIS
     442      28.95948877      28.95948822       1.887E-08      1.99    <-- DIS
     443      28.95948845      28.95948791       1.864E-08      2.00    <-- DIS
     444      28.95948814      28.95948761       1.841E-08      2.01    <-- DIS
     445      28.95948783      28.95948730       1.818E-08      2.02    <-- DIS
     446      28.95948753      28.95948701       1.795E-08      2.02    <-- DIS
     447      28.95948723      28.95948671       1.773E-08      2.03    <-- DIS
     448      28.95948693      28.95948642       1.751E-08      2.05    <-- DIS
     449      28.95948663      28.95948613       1.730E-08      2.05    <-- DIS
     450      28.95948634      28.95948585       1.708E-08      2.06    <-- DIS
     451      28.95948606      28.95948557       1.687E-08      2.07    <-- DIS
     452      28.95948578      28.95948529       1.666E-08      2.07    <-- DIS
     453      28.95948550      28.95948502       1.646E-08      2.08    <-- DIS
     454      28.95948522      28.95948475       1.625E-08      2.08    <-- DIS
     455      28.95948495      28.95948448       1.605E-08      2.08    <-- DIS
     456      28.95948468      28.95948422       1.585E-08      2.09    <-- DIS
     457      28.95948441      28.95948396       1.566E-08      2.09    <-- DIS
     458      28.95948415      28.95948370       1.546E-08      2.10    <-- DIS
     459      28.95948389      28.95948345       1.527E-08      2.10    <-- DIS
     460      28.95948363      28.95948320       1.508E-08      2.11    <-- DIS
     461      28.95948338      28.95948295       1.490E-08      2.11    <-- DIS
     462      28.95948313      28.95948270       1.471E-08      2.12    <-- DIS
     463      28.95948288      28.95948246       1.453E-08      2.12    <-- DIS
     464      28.95948264      28.95948222       1.435E-08      2.12    <-- DIS
     465      28.95948240      28.95948199       1.417E-08      2.13    <-- DIS
     466      28.95948216      28.95948176       1.400E-08      2.13    <-- DIS
     467      28.95948193      28.95948153       1.383E-08      2.14    <-- DIS
     468      28.95948169      28.95948130       1.366E-08      2.14    <-- DIS
     469      28.95948147      28.95948107       1.349E-08      2.15    <-- DIS
     470      28.95948124      28.95948085       1.332E-08      2.15    <-- DIS
     471      28.95948102      28.95948063       1.316E-08      2.16    <-- DIS
     472      28.95948079      28.95948042       1.299E-08      2.16    <-- DIS
     473      28.95948058      28.95948020       1.283E-08      2.16    <-- DIS
     474      28.95948036      28.95947999       1.267E-08      2.17    <-- DIS
     475      28.95948015      28.95947979       1.252E-08      2.17    <-- DIS
     476      28.95947994      28.95947958       1.236E-08      2.18    <-- DIS
     477      28.95947973      28.95947938       1.221E-08      2.18    <-- DIS
     478      28.95947953      28.95947918       1.206E-08      2.19    <-- DIS
     479      28.95947932      28.95947898       1.191E-08      2.19    <-- DIS
     480      28.95947912      28.95947878       1.176E-08      2.19    <-- DIS
     481      28.95947893      28.95947859       1.162E-08      2.20    <-- DIS
     482      28.95947873      28.95947840       1.147E-08      2.20    <-- DIS
     483      28.95947854      28.95947821       1.133E-08      2.21    <-- DIS
     484      28.95947835      28.95947802       1.119E-08      2.21    <-- DIS
     485      28.95947816      28.95947784       1.105E-08      2.22    <-- DIS
     486      28.95947797      28.95947766       1.091E-08      2.22    <-- DIS
     487      28.95947779      28.95947748       1.078E-08      2.22    <-- DIS
     488      28.95947761      28.95947730       1.065E-08      2.23    <-- DIS
     489      28.95947743      28.95947713       1.051E-08      2.23    <-- DIS
     490      28.95947725      28.95947695       1.038E-08      2.24    <-- DIS
     491      28.95947708      28.95947678       1.026E-08      2.24    <-- DIS
     492      28.95947691      28.95947661       1.013E-08      2.25    <-- DIS
     493      28.95947674      28.95947645       1.000E-08      2.25    <-- DIS
     494      28.95947657      28.95947628       9.879E-09      2.26    <-- DIS
     495      28.95947640      28.95947612       9.757E-09      2.26    <-- DIS
     496      28.95947624      28.95947596       9.636E-09      2.26    <-- DIS
     497      28.95947608      28.95947580       9.516E-09      2.27    <-- DIS
     498      28.95947592      28.95947565       9.399E-09      2.27    <-- DIS
     499      28.95947576      28.95947549       9.282E-09      2.28    <-- DIS
     500      28.95947560      28.95947534       9.167E-09      2.28    <-- DIS
     501      28.95947545      28.95947519       9.054E-09      2.29    <-- DIS
     502      28.95947530      28.95947504       8.941E-09      2.29    <-- DIS
     503      28.95947515      28.95947489       8.831E-09      2.30    <-- DIS
     504      28.95947500      28.95947475       8.721E-09      2.30    <-- DIS
     505      28.95947485      28.95947460       8.613E-09      2.30    <-- DIS
     506      28.95947471      28.95947446       8.507E-09      2.31    <-- DIS
     507      28.95947456      28.95947432       8.401E-09      2.31    <-- DIS
     508      28.95947442      28.95947418       8.297E-09      2.32    <-- DIS
     509      28.95947428      28.95947405       8.194E-09      2.32    <-- DIS
     510      28.95947414      28.95947391       8.093E-09      2.33    <-- DIS
     511      28.95947401      28.95947378       7.992E-09      2.33    <-- DIS
     512      28.95947387      28.95947365       7.893E-09      2.33    <-- DIS
     513      28.95947374      28.95947352       7.796E-09      2.34    <-- DIS
     514      28.95947361      28.95947339       7.699E-09      2.34    <-- DIS
     515      28.95947348      28.95947326       7.604E-09      2.35    <-- DIS
     516      28.95947335      28.95947314       7.509E-09      2.35    <-- DIS
     517      28.95947323      28.95947301       7.416E-09      2.36    <-- DIS
     518      28.95947310      28.95947289       7.324E-09      2.36    <-- DIS
     519      28.95947298      28.95947277       7.234E-09      2.37    <-- DIS
     520      28.95947286      28.95947265       7.144E-09      2.37    <-- DIS
     521      28.95947274      28.95947253       7.055E-09      2.37    <-- DIS
     522      28.95947262      28.95947242       6.968E-09      2.38    <-- DIS
     523      28.95947250      28.95947230       6.881E-09      2.38    <-- DIS
     524      28.95947238      28.95947219       6.796E-09      2.39    <-- DIS
     525      28.95947227      28.95947208       6.712E-09      2.39    <-- DIS
     526      28.95947216      28.95947197       6.629E-09      2.40    <-- DIS
     527      28.95947205      28.95947186       6.546E-09      2.40    <-- DIS
     528      28.95947194      28.95947175       6.465E-09      2.40    <-- DIS
     529      28.95947183      28.95947164       6.385E-09      2.41    <-- DIS
     530      28.95947172      28.95947154       6.306E-09      2.41    <-- DIS
     531      28.95947161      28.95947143       6.228E-09      2.42    <-- DIS
     532      28.95947151      28.95947133       6.150E-09      2.42    <-- DIS
     533      28.95947140      28.95947123       6.074E-09      2.43    <-- DIS
     534      28.95947130      28.95947113       5.999E-09      2.43    <-- DIS
     535      28.95947120      28.95947103       5.924E-09      2.43    <-- DIS
     536      28.95947110      28.95947093       5.851E-09      2.44    <-- DIS
     537      28.95947100      28.95947083       5.778E-09      2.44    <-- DIS
     538      28.95947090      28.95947074       5.707E-09      2.45    <-- DIS
     539      28.95947081      28.95947065       5.636E-09      2.45    <-- DIS
     540      28.95947071      28.95947055       5.566E-09      2.46    <-- DIS
     541      28.95947062      28.95947046       5.497E-09      2.46    <-- DIS
     542      28.95947053      28.95947037       5.429E-09      2.47    <-- DIS
     543      28.95947044      28.95947028       5.361E-09      2.47    <-- DIS
     544      28.95947035      28.95947019       5.295E-09      2.47    <-- DIS
     545      28.95947026      28.95947010       5.229E-09      2.48    <-- DIS
     546      28.95947017      28.95947002       5.164E-09      2.48    <-- DIS
     547      28.95947008      28.95946993       5.100E-09      2.49    <-- DIS
     548      28.95946999      28.95946985       5.037E-09      2.49    <-- DIS
     549      28.95946991      28.95946977       4.974E-09      2.50    <-- DIS
     550      28.95946983      28.95946968       4.912E-09      2.50    <-- DIS
     551      28.95946974      28.95946960       4.851E-09      2.50    <-- DIS
     552      28.95946966      28.95946952       4.791E-09      2.51    <-- DIS
     553      28.95946958      28.95946944       4.732E-09      2.51    <-- DIS
     554      28.95946950      28.95946937       4.673E-09      2.52    <-- DIS
     555      28.95946942      28.95946929       4.615E-09      2.52    <-- DIS
     556      28.95946934      28.95946921       4.558E-09      2.53    <-- DIS
     557      28.95946927      28.95946914       4.501E-09      2.53    <-- DIS
     558      28.95946919      28.95946906       4.445E-09      2.53    <-- DIS
     559      28.95946912      28.95946899       4.390E-09      2.54    <-- DIS
     560      28.95946904      28.95946892       4.335E-09      2.54    <-- DIS
     561      28.95946897      28.95946884       4.281E-09      2.55    <-- DIS
     562      28.95946890      28.95946877       4.228E-09      2.55    <-- DIS
     563      28.95946882      28.95946870       4.176E-09      2.56    <-- DIS
     564      28.95946875      28.95946863       4.124E-09      2.56    <-- DIS
     565      28.95946868      28.95946857       4.073E-09      2.56    <-- DIS
     566      28.95946862      28.95946850       4.022E-09      2.57    <-- DIS
     567      28.95946855      28.95946843       3.972E-09      2.57    <-- DIS
     568      28.95946848      28.95946837       3.923E-09      2.58    <-- DIS
     569      28.95946841      28.95946830       3.874E-09      2.58    <-- DIS
     570      28.95946835      28.95946824       3.826E-09      2.59    <-- DIS
     571      28.95946828      28.95946818       3.778E-09      2.59    <-- DIS
     572      28.95946822      28.95946811       3.731E-09      2.60    <-- DIS
     573      28.95946816      28.95946805       3.685E-09      2.60    <-- DIS
     574      28.95946810      28.95946799       3.639E-09      2.60    <-- DIS
     575      28.95946803      28.95946793       3.594E-09      2.61    <-- DIS
     576      28.95946797      28.95946787       3.549E-09      2.61    <-- DIS
     577      28.95946791      28.95946781       3.505E-09      2.62    <-- DIS
     578      28.95946785      28.95946775       3.461E-09      2.62    <-- DIS
     579      28.95946780      28.95946770       3.418E-09      2.63    <-- DIS
     580      28.95946774      28.95946764       3.376E-09      2.63    <-- DIS
     581      28.95946768      28.95946758       3.334E-09      2.63    <-- DIS
     582      28.95946762      28.95946753       3.292E-09      2.64    <-- DIS
     583      28.95946757      28.95946747       3.251E-09      2.64    <-- DIS
     584      28.95946751      28.95946742       3.211E-09      2.65    <-- DIS
     585      28.95946746      28.95946737       3.171E-09      2.65    <-- DIS
     586      28.95946741      28.95946731       3.132E-09      2.66    <-- DIS
     587      28.95946735      28.95946726       3.093E-09      2.66    <-- DIS
     588      28.95946730      28.95946721       3.054E-09      2.66    <-- DIS
     589      28.95946725      28.95946716       3.016E-09      2.67    <-- DIS
     590      28.95946720      28.95946711       2.979E-09      2.67    <-- DIS
     591      28.95946715      28.95946706       2.942E-09      2.68    <-- DIS
     592      28.95946710      28.95946701       2.905E-09      2.68    <-- DIS
     593      28.95946705      28.95946696       2.869E-09      2.69    <-- DIS
     594      28.95946700      28.95946692       2.833E-09      2.69    <-- DIS
     595      28.95946695      28.95946687       2.798E-09      2.69    <-- DIS
     596      28.95946690      28.95946682       2.763E-09      2.70    <-- DIS
     597      28.95946686      28.95946678       2.729E-09      2.70    <-- DIS
     598      28.95946681      28.95946673       2.695E-09      2.71    <-- DIS
     599      28.95946676      28.95946669       2.661E-09      2.71    <-- DIS
     600      28.95946672      28.95946664       2.628E-09      2.72    <-- DIS
     601      28.95946668      28.95946660       2.595E-09      2.72    <-- DIS
     602      28.95946663      28.95946656       2.563E-09      2.72    <-- DIS
     603      28.95946659      28.95946651       2.531E-09      2.73    <-- DIS
     604      28.95946654      28.95946647       2.500E-09      2.73    <-- DIS
     605      28.95946650      28.95946643       2.468E-09      2.74    <-- DIS
     606      28.95946646      28.95946639       2.438E-09      2.74    <-- DIS
     607      28.95946642      28.95946635       2.407E-09      2.75    <-- DIS
     608      28.95946638      28.95946631       2.377E-09      2.75    <-- DIS
     609      28.95946634      28.95946627       2.348E-09      2.76    <-- DIS
     610      28.95946630      28.95946623       2.319E-09      2.76    <-- DIS
     611      28.95946626      28.95946619       2.290E-09      2.76    <-- DIS
     612      28.95946622      28.95946615       2.261E-09      2.77    <-- DIS
     613      28.95946618      28.95946612       2.233E-09      2.77    <-- DIS
     614      28.95946614      28.95946608       2.205E-09      2.78    <-- DIS
     615      28.95946611      28.95946604       2.178E-09      2.78    <-- DIS
     616      28.95946607      28.95946601       2.150E-09      2.79    <-- DIS
     617      28.95946603      28.95946597       2.124E-09      2.79    <-- DIS
     618      28.95946600      28.95946594       2.097E-09      2.79    <-- DIS
     619      28.95946596      28.95946590       2.071E-09      2.80    <-- DIS
     620      28.95946593      28.95946587       2.045E-09      2.80    <-- DIS
     621      28.95946589      28.95946583       2.020E-09      2.81    <-- DIS
     622      28.95946586      28.95946580       1.995E-09      2.81    <-- DIS
     623      28.95946582      28.95946577       1.970E-09      2.82    <-- DIS
     624      28.95946579      28.95946573       1.945E-09      2.82    <-- DIS
     625      28.95946576      28.95946570       1.921E-09      2.82    <-- DIS
     626      28.95946572      28.95946567       1.897E-09      2.83    <-- DIS
     627      28.95946569      28.95946564       1.873E-09      2.83    <-- DIS
     628      28.95946566      28.95946561       1.850E-09      2.84    <-- DIS
     629      28.95946563      28.95946558       1.827E-09      2.84    <-- DIS
     630      28.95946560      28.95946554       1.804E-09      2.85    <-- DIS
     631      28.95946557      28.95946551       1.782E-09      2.85    <-- DIS
     632      28.95946554      28.95946549       1.759E-09      2.86    <-- DIS
     633      28.95946551      28.95946546       1.737E-09      2.86    <-- DIS
     634      28.95946548      28.95946543       1.716E-09      2.86    <-- DIS
     635      28.95946545      28.95946540       1.694E-09      2.87    <-- DIS
     636      28.95946542      28.95946537       1.673E-09      2.87    <-- DIS
     637      28.95946539      28.95946534       1.652E-09      2.88    <-- DIS
     638      28.95946536      28.95946531       1.632E-09      2.88    <-- DIS
     639      28.95946533      28.95946529       1.611E-09      2.89    <-- DIS
     640      28.95946531      28.95946526       1.591E-09      2.89    <-- DIS
     641      28.95946528      28.95946523       1.571E-09      2.89    <-- DIS
     642      28.95946525      28.95946521       1.552E-09      2.90    <-- DIS
     643      28.95946523      28.95946518       1.532E-09      2.90    <-- DIS
     644      28.95946520      28.95946516       1.513E-09      2.91    <-- DIS
     645      28.95946517      28.95946513       1.494E-09      2.91    <-- DIS
     646      28.95946515      28.95946511       1.476E-09      2.92    <-- DIS
     647      28.95946512      28.95946508       1.457E-09      2.92    <-- DIS
     648      28.95946510      28.95946506       1.439E-09      2.92    <-- DIS
     649      28.95946507      28.95946503       1.421E-09      2.93    <-- DIS
     650      28.95946505      28.95946501       1.403E-09      2.93    <-- DIS
     651      28.95946503      28.95946499       1.386E-09      2.94    <-- DIS
     652      28.95946500      28.95946496       1.368E-09      2.94    <-- DIS
     653      28.95946498      28.95946494       1.351E-09      2.95    <-- DIS
     654      28.95946496      28.95946492       1.334E-09      2.95    <-- DIS
     655      28.95946493      28.95946490       1.318E-09      2.95    <-- DIS
     656      28.95946491      28.95946487       1.301E-09      2.96    <-- DIS
     657      28.95946489      28.95946485       1.285E-09      2.96    <-- DIS
     658      28.95946487      28.95946483       1.269E-09      2.97    <-- DIS
     659      28.95946485      28.95946481       1.253E-09      2.97    <-- DIS
     660      28.95946482      28.95946479       1.237E-09      2.98    <-- DIS
     661      28.95946480      28.95946477       1.222E-09      2.98    <-- DIS
     662      28.95946478      28.95946475       1.207E-09      2.99    <-- DIS
     663      28.95946476      28.95946473       1.191E-09      2.99    <-- DIS
     664      28.95946474      28.95946471       1.177E-09      2.99    <-- DIS
     665      28.95946472      28.95946469       1.162E-09      3.00    <-- DIS
     666      28.95946470      28.95946467       1.147E-09      3.00    <-- DIS
     667      28.95946468      28.95946465       1.133E-09      3.01    <-- DIS
     668      28.95946466      28.95946463       1.119E-09      3.01    <-- DIS
     669      28.95946464      28.95946461       1.105E-09      3.02    <-- DIS
     670      28.95946462      28.95946459       1.091E-09      3.02    <-- DIS
     671      28.95946461      28.95946457       1.077E-09      3.02    <-- DIS
     672      28.95946459      28.95946456       1.064E-09      3.03    <-- DIS
     673      28.95946457      28.95946454       1.051E-09      3.03    <-- DIS
     674      28.95946455      28.95946452       1.037E-09      3.04    <-- DIS
     675      28.95946453      28.95946450       1.024E-09      3.04    <-- DIS
     676      28.95946452      28.95946449       1.012E-09      3.05    <-- DIS
     677      28.95946450      28.95946447       9.989E-10      3.05    <-- DIS
     678      28.95946448      28.95946445       9.864E-10      3.05    <-- DIS
     679      28.95946446      28.95946444       9.740E-10      3.06    <-- DIS
     680      28.95946445      28.95946442       9.618E-10      3.06    <-- DIS
     681      28.95946443      28.95946440       9.498E-10      3.07    <-- DIS
     682      28.95946441      28.95946439       9.379E-10      3.07    <-- DIS
     683      28.95946440      28.95946437       9.261E-10      3.08    <-- DIS
     684      28.95946438      28.95946436       9.145E-10      3.08    <-- DIS
     685      28.95946437      28.95946434       9.030E-10      3.08    <-- DIS
     686      28.95946435      28.95946433       8.917E-10      3.09    <-- DIS
     687      28.95946434      28.95946431       8.805E-10      3.09    <-- DIS
     688      28.95946432      28.95946430       8.695E-10      3.10    <-- DIS
     689      28.95946431      28.95946428       8.586E-10      3.10    <-- DIS
     690      28.95946429      28.95946427       8.478E-10      3.11    <-- DIS
     691      28.95946428      28.95946425       8.372E-10      3.11    <-- DIS
     692      28.95946426      28.95946424       8.267E-10      3.12    <-- DIS
     693      28.95946425      28.95946422       8.163E-10      3.12    <-- DIS
     694      28.95946423      28.95946421       8.061E-10      3.12    <-- DIS
     695      28.95946422      28.95946420       7.960E-10      3.13    <-- DIS
     696      28.95946421      28.95946418       7.860E-10      3.13    <-- DIS
     697      28.95946419      28.95946417       7.761E-10      3.14    <-- DIS
     698      28.95946418      28.95946416       7.664E-10      3.14    <-- DIS
     699      28.95946417      28.95946414       7.567E-10      3.15    <-- DIS
     700      28.95946415      28.95946413       7.473E-10      3.15    <-- DIS
     701      28.95946414      28.95946412       7.379E-10      3.16    <-- DIS
     702      28.95946413      28.95946411       7.286E-10      3.16    <-- DIS
     703      28.95946412      28.95946409       7.195E-10      3.16    <-- DIS
     704      28.95946410      28.95946408       7.104E-10      3.17    <-- DIS
     705      28.95946409      28.95946407       7.015E-10      3.17    <-- DIS
     706      28.95946408      28.95946406       6.927E-10      3.18    <-- DIS
     707      28.95946407      28.95946405       6.840E-10      3.18    <-- DIS
     708      28.95946405      28.95946404       6.754E-10      3.19    <-- DIS
     709      28.95946404      28.95946402       6.669E-10      3.19    <-- DIS
     710      28.95946403      28.95946401       6.585E-10      3.19    <-- DIS
     711      28.95946402      28.95946400       6.502E-10      3.20    <-- DIS
     712      28.95946401      28.95946399       6.421E-10      3.20    <-- DIS
     713      28.95946400      28.95946398       6.340E-10      3.21    <-- DIS
     714      28.95946399      28.95946397       6.260E-10      3.21    <-- DIS
     715      28.95946398      28.95946396       6.182E-10      3.22    <-- DIS
     716      28.95946397      28.95946395       6.104E-10      3.22    <-- DIS
     717      28.95946395      28.95946394       6.027E-10      3.23    <-- DIS
     718      28.95946394      28.95946393       5.951E-10      3.23    <-- DIS
     719      28.95946393      28.95946392       5.876E-10      3.23    <-- DIS
     720      28.95946392      28.95946391       5.802E-10      3.24    <-- DIS
     721      28.95946391      28.95946390       5.729E-10      3.24    <-- DIS
     722      28.95946390      28.95946389       5.657E-10      3.25    <-- DIS
     723      28.95946389      28.95946388       5.586E-10      3.25    <-- DIS
     724      28.95946388      28.95946387       5.516E-10      3.26    <-- DIS
     725      28.95946388      28.95946386       5.446E-10      3.26    <-- DIS
     726      28.95946387      28.95946385       5.378E-10      3.26    <-- DIS
     727      28.95946386      28.95946384       5.310E-10      3.27    <-- DIS
     728      28.95946385      28.95946383       5.243E-10      3.27    <-- DIS
     729      28.95946384      28.95946382       5.177E-10      3.28    <-- DIS
     730      28.95946383      28.95946381       5.112E-10      3.28    <-- DIS
     731      28.95946382      28.95946381       5.047E-10      3.29    <-- DIS
     732      28.95946381      28.95946380       4.984E-10      3.29    <-- DIS
     733      28.95946380      28.95946379       4.921E-10      3.30    <-- DIS
     734      28.95946379      28.95946378       4.859E-10      3.30    <-- DIS
     735      28.95946379      28.95946377       4.798E-10      3.31    <-- DIS
     736      28.95946378      28.95946376       4.737E-10      3.31    <-- DIS
     737      28.95946377      28.95946376       4.678E-10      3.31    <-- DIS
     738      28.95946376      28.95946375       4.618E-10      3.32    <-- DIS
[...]

     12    -0.462E-07                        31.4684923372       3.85  <-- CONV
        O_D=      0.0000000 O_OD=      2.5090291 O_TOT=     31.4684923 <-- SPRD
 Delta: O_D=  0.0000000E+00 O_OD= -0.4624718E-07 O_TOT= -0.4624718E-07 <-- DLTA
 ------------------------------------------------------------------------------
 Cycle:     13
  WF centre and spread    1  ( -1.064636, -7.936111, -2.183690 )     6.05016898
  WF centre and spread    2  ( -6.875134,  7.935472,  7.937658 )     0.65233978
  WF centre and spread    3  (  5.813346, -6.095176, -7.937658 )     0.65161727
  WF centre and spread    4  (  4.748247,  7.935471,  7.937658 )     0.65234076
  WF centre and spread    5  (  7.936083,  7.324219, -7.937653 )     0.60994091
  WF centre and spread    6  (  5.812338,  7.324223, -7.937655 )     0.60993444
  WF centre and spread    7  (  6.874235,  6.850485, -7.648766 )     1.20499727
  WF centre and spread    8  (  6.873852,  3.470077, -0.022542 )     6.42231622
  WF centre and spread    9  (  7.816756, -7.396900,  7.647999 )     1.20140198
  WF centre and spread   10  (  6.874230,  6.850491,  7.648760 )     1.20500711
  WF centre and spread   11  (  6.874206, -6.712571, -7.937655 )     0.61135009
  WF centre and spread   12  ( -7.936204,  6.097678,  7.937658 )     0.65187009
  WF centre and spread   13  ( -1.065926, -0.001313,  2.706660 )     6.03763776
  WF centre and spread   14  (  7.935078, -6.095171, -7.937658 )     0.65162108
  WF centre and spread   15  (  5.931604, -7.396967, -7.647999 )     1.20133951
  WF centre and spread   16  (  7.816765, -7.396903, -7.648002 )     1.20138786
  WF centre and spread   17  (  5.931610, -7.396965,  7.647997 )     1.20135423
  WF centre and spread   18  (  5.809312,  6.097682, -7.937658 )     0.65186698
  Sum of centres and spreads ( 76.105761,  3.457721,-23.312546 )    31.46849233

     13    -0.115E-07                        31.4684923257       3.85  <-- CONV
        O_D=      0.0000000 O_OD=      2.5090291 O_TOT=     31.4684923 <-- SPRD
 Delta: O_D=  0.0000000E+00 O_OD= -0.1151818E-07 O_TOT= -0.1151818E-07 <-- DLTA
 ------------------------------------------------------------------------------
 Cycle:     14
  WF centre and spread    1  ( -1.064636, -7.936111, -2.183690 )     6.05016898
  WF centre and spread    2  ( -6.875134,  7.935472,  7.937658 )     0.65233988
  WF centre and spread    3  (  5.813346, -6.095176, -7.937658 )     0.65161732
  WF centre and spread    4  (  4.748247,  7.935471,  7.937658 )     0.65234070
  WF centre and spread    5  (  7.936083,  7.324219, -7.937655 )     0.60994080
  WF centre and spread    6  (  5.812338,  7.324223, -7.937656 )     0.60993460
  WF centre and spread    7  (  6.874224,  6.850487, -7.648765 )     1.20499962
  WF centre and spread    8  (  6.873852,  3.470077, -0.022542 )     6.42231622
  WF centre and spread    9  (  7.816764, -7.396908,  7.648000 )     1.20139639
  WF centre and spread   10  (  6.874221,  6.850490,  7.648761 )     1.20500685
  WF centre and spread   11  (  6.874206, -6.712571, -7.937657 )     0.61134991
  WF centre and spread   12  ( -7.936204,  6.097678,  7.937658 )     0.65187006
  WF centre and spread   13  ( -1.065926, -0.001313,  2.706660 )     6.03763776
  WF centre and spread   14  (  7.935078, -6.095171, -7.937658 )     0.65162100
  WF centre and spread   15  (  5.931610, -7.396959, -7.647998 )     1.20134431
  WF centre and spread   16  (  7.816768, -7.396910, -7.648001 )     1.20138925
  WF centre and spread   17  (  5.931613, -7.396958,  7.647997 )     1.20135167
  WF centre and spread   18  (  5.809312,  6.097682, -7.937658 )     0.65186701
  Sum of centres and spreads ( 76.105761,  3.457720,-23.312546 )    31.46849232

     14    -0.287E-08                        31.4684923228       3.85  <-- CONV
        O_D=      0.0000000 O_OD=      2.5090291 O_TOT=     31.4684923 <-- SPRD
 Delta: O_D=  0.0000000E+00 O_OD= -0.2869001E-08 O_TOT= -0.2869001E-08 <-- DLTA
 ------------------------------------------------------------------------------
 Cycle:     15
  WF centre and spread    1  ( -1.064636, -7.936111, -2.183690 )     6.05016898
  WF centre and spread    2  ( -6.875134,  7.935472,  7.937658 )     0.65233993
  WF centre and spread    3  (  5.813346, -6.095176, -7.937658 )     0.65161735
  WF centre and spread    4  (  4.748247,  7.935471,  7.937658 )     0.65234067
  WF centre and spread    5  (  7.936084,  7.324220, -7.937656 )     0.60994075
  WF centre and spread    6  (  5.812338,  7.324223, -7.937657 )     0.60993468
  WF centre and spread    7  (  6.874218,  6.850487, -7.648764 )     1.20500089
  WF centre and spread    8  (  6.873852,  3.470077, -0.022542 )     6.42231622
  WF centre and spread    9  (  7.816768, -7.396913,  7.648000 )     1.20139352
  WF centre and spread   10  (  6.874217,  6.850490,  7.648761 )     1.20500662
  WF centre and spread   11  (  6.874206, -6.712571, -7.937657 )     0.61134982
  WF centre and spread   12  ( -7.936204,  6.097678,  7.937658 )     0.65187004
  WF centre and spread   13  ( -1.065926, -0.001313,  2.706660 )     6.03763776
  WF centre and spread   14  (  7.935078, -6.095171, -7.937658 )     0.65162096
  WF centre and spread   15  (  5.931613, -7.396955, -7.647998 )     1.20134676
  WF centre and spread   16  (  7.816770, -7.396914, -7.648001 )     1.20139003
  WF centre and spread   17  (  5.931615, -7.396955,  7.647998 )     1.20135033
  WF centre and spread   18  (  5.809312,  6.097682, -7.937658 )     0.65186702
  Sum of centres and spreads ( 76.105762,  3.457720,-23.312546 )    31.46849232

     15    -0.715E-09                        31.4684923221       3.85  <-- CONV
        O_D=      0.0000000 O_OD=      2.5090291 O_TOT=     31.4684923 <-- SPRD
 Delta: O_D=  0.0000000E+00 O_OD= -0.7146355E-09 O_TOT= -0.7146355E-09 <-- DLTA
 ------------------------------------------------------------------------------
 Cycle:     16
  WF centre and spread    1  ( -1.064636, -7.936111, -2.183690 )     6.05016898
  WF centre and spread    2  ( -6.875134,  7.935472,  7.937658 )     0.65233996
  WF centre and spread    3  (  5.813346, -6.095176, -7.937658 )     0.65161736
  WF centre and spread    4  (  4.748247,  7.935471,  7.937658 )     0.65234066
  WF centre and spread    5  (  7.936084,  7.324220, -7.937657 )     0.60994072
  WF centre and spread    6  (  5.812338,  7.324223, -7.937657 )     0.60993472
  WF centre and spread    7  (  6.874215,  6.850488, -7.648764 )     1.20500157
  WF centre and spread    8  (  6.873852,  3.470077, -0.022542 )     6.42231622
  WF centre and spread    9  (  7.816770, -7.396915,  7.648001 )     1.20139206
  WF centre and spread   10  (  6.874215,  6.850490,  7.648762 )     1.20500646
  WF centre and spread   11  (  6.874205, -6.712571, -7.937658 )     0.61134977
  WF centre and spread   12  ( -7.936204,  6.097678, -7.937658 )     0.65187003
  WF centre and spread   13  ( -1.065926, -0.001313,  2.706660 )     6.03763776
  WF centre and spread   14  (  7.935078, -6.095171, -7.937658 )     0.65162094
  WF centre and spread   15  (  5.931615, -7.396953, -7.647998 )     1.20134800
  WF centre and spread   16  (  7.816771, -7.396915, -7.648001 )     1.20139046
  WF centre and spread   17  (  5.931616, -7.396953,  7.647998 )     1.20134963
  WF centre and spread   18  (  5.809312,  6.097682, -7.937658 )     0.65186702
  Sum of centres and spreads ( 76.105762,  3.457720,-39.187862 )    31.46849232

     16    -0.178E-09                        31.4684923219       3.85  <-- CONV
        O_D=      0.0000000 O_OD=      2.5090291 O_TOT=     31.4684923 <-- SPRD
 Delta: O_D=  0.0000000E+00 O_OD= -0.1780904E-09 O_TOT= -0.1780904E-09 <-- DLTA
 ------------------------------------------------------------------------------
 Cycle:     17
  WF centre and spread    1  ( -1.064636, -7.936111, -2.183690 )     6.05016898
  WF centre and spread    2  ( -6.875134,  7.935472,  7.937658 )     0.65233997
  WF centre and spread    3  (  5.813346, -6.095176, -7.937658 )     0.65161737
  WF centre and spread    4  (  4.748247,  7.935471,  7.937658 )     0.65234065
  WF centre and spread    5  (  7.936084,  7.324220, -7.937658 )     0.60994071
  WF centre and spread    6  (  5.812338,  7.324223, -7.937658 )     0.60993475
  WF centre and spread    7  (  6.874214,  6.850488, -7.648763 )     1.20500193
  WF centre and spread    8  (  6.873852,  3.470077, -0.022542 )     6.42231622
  WF centre and spread    9  (  7.816771, -7.396916,  7.648001 )     1.20139130
  WF centre and spread   10  (  6.874214,  6.850490,  7.648762 )     1.20500635
  WF centre and spread   11  (  6.874205, -6.712571, -7.937658 )     0.61134974
  WF centre and spread   12  ( -7.936204,  6.097678, -7.937658 )     0.65187002
  WF centre and spread   13  ( -1.065926, -0.001313,  2.706660 )     6.03763776
  WF centre and spread   14  (  7.935078, -6.095171, -7.937658 )     0.65162093
  WF centre and spread   15  (  5.931616, -7.396952, -7.647998 )     1.20134864
  WF centre and spread   16  (  7.816771, -7.396916, -7.648001 )     1.20139070
  WF centre and spread   17  (  5.931616, -7.396952,  7.647998 )     1.20134927
  WF centre and spread   18  (  5.809312,  6.097682, -7.937658 )     0.65186702
  Sum of centres and spreads ( 76.105762,  3.457720,-39.187862 )    31.46849232

     17    -0.443E-10                        31.4684923219       3.85  <-- CONV
        O_D=      0.0000000 O_OD=      2.5090291 O_TOT=     31.4684923 <-- SPRD
 Delta: O_D=  0.0000000E+00 O_OD= -0.4433787E-10 O_TOT= -0.4433787E-10 <-- DLTA
 ------------------------------------------------------------------------------
 Cycle:     18
  WF centre and spread    1  ( -1.064636, -7.936111, -2.183690 )     6.05016898
  WF centre and spread    2  ( -6.875134,  7.935472,  7.937658 )     0.65233998
  WF centre and spread    3  (  5.813346, -6.095176, -7.937658 )     0.65161737
  WF centre and spread    4  (  4.748247,  7.935471,  7.937658 )     0.65234064
  WF centre and spread    5  (  7.936084,  7.324220, -7.937658 )     0.60994070
  WF centre and spread    6  (  5.812338,  7.324223, -7.937658 )     0.60993476
  WF centre and spread    7  (  6.874213,  6.850488, -7.648763 )     1.20500213
  WF centre and spread    8  (  6.873852,  3.470077, -0.022542 )     6.42231622
  WF centre and spread    9  (  7.816771, -7.396916,  7.648001 )     1.20139092
  WF centre and spread   10  (  6.874213,  6.850490,  7.648762 )     1.20500629
  WF centre and spread   11  (  6.874205, -6.712571,  7.937658 )     0.61134973
  WF centre and spread   12  ( -7.936204,  6.097678, -7.937658 )     0.65187002
  WF centre and spread   13  ( -1.065926, -0.001313,  2.706660 )     6.03763776
  WF centre and spread   14  (  7.935078, -6.095171, -7.937658 )     0.65162093
  WF centre and spread   15  (  5.931616, -7.396952, -7.647998 )     1.20134897
  WF centre and spread   16  (  7.816771, -7.396917, -7.648000 )     1.20139083
  WF centre and spread   17  (  5.931616, -7.396951,  7.647998 )     1.20134908
  WF centre and spread   18  (  5.809312,  6.097682, -7.937658 )     0.65186703
  Sum of centres and spreads ( 76.105762,  3.457720,-23.312546 )    31.46849232

     18    -0.111E-10                        31.4684923219       3.85  <-- CONV
        O_D=      0.0000000 O_OD=      2.5090291 O_TOT=     31.4684923 <-- SPRD
 Delta: O_D=  0.0000000E+00 O_OD= -0.1114131E-10 O_TOT= -0.1114131E-10 <-- DLTA
 ------------------------------------------------------------------------------
 Cycle:     19
  WF centre and spread    1  ( -1.064636, -7.936111, -2.183690 )     6.05016898
  WF centre and spread    2  ( -6.875134,  7.935472,  7.937658 )     0.65233998
  WF centre and spread    3  (  5.813346, -6.095176, -7.937658 )     0.65161737
  WF centre and spread    4  (  4.748247,  7.935471,  7.937658 )     0.65234064
  WF centre and spread    5  (  7.936084,  7.324220, -7.937658 )     0.60994069
  WF centre and spread    6  (  5.812338,  7.324223, -7.937658 )     0.60993476
  WF centre and spread    7  (  6.874213,  6.850488, -7.648763 )     1.20500223
  WF centre and spread    8  (  6.873852,  3.470077, -0.022542 )     6.42231622
  WF centre and spread    9  (  7.816771, -7.396917,  7.648001 )     1.20139072
  WF centre and spread   10  (  6.874213,  6.850490,  7.648762 )     1.20500625
  WF centre and spread   11  (  6.874205, -6.712571,  7.937658 )     0.61134973
  WF centre and spread   12  ( -7.936204,  6.097678, -7.937658 )     0.65187002
  WF centre and spread   13  ( -1.065926, -0.001313,  2.706660 )     6.03763776
  WF centre and spread   14  (  7.935078, -6.095171, -7.937658 )     0.65162093
  WF centre and spread   15  (  5.931616, -7.396952, -7.647998 )     1.20134913
  WF centre and spread   16  (  7.816771, -7.396917, -7.648000 )     1.20139090
  WF centre and spread   17  (  5.931616, -7.396951,  7.647998 )     1.20134898
  WF centre and spread   18  (  5.809312,  6.097682, -7.937658 )     0.65186703
  Sum of centres and spreads ( 76.105762,  3.457720,-23.312546 )    31.46849232

     19    -0.284E-11                        31.4684923219       3.85  <-- CONV
        O_D=      0.0000000 O_OD=      2.5090291 O_TOT=     31.4684923 <-- SPRD
 Delta: O_D=  0.0000000E+00 O_OD= -0.2842171E-11 O_TOT= -0.2842171E-11 <-- DLTA
 ------------------------------------------------------------------------------
 Cycle:     20
  WF centre and spread    1  ( -1.064636, -7.936111, -2.183690 )     6.05016898
  WF centre and spread    2  ( -6.875134,  7.935472,  7.937658 )     0.65233998
  WF centre and spread    3  (  5.813346, -6.095176, -7.937658 )     0.65161737
  WF centre and spread    4  (  4.748247,  7.935471,  7.937658 )     0.65234064
  WF centre and spread    5  (  7.936084,  7.324220, -7.937658 )     0.60994069
  WF centre and spread    6  (  5.812338,  7.324223, -7.937658 )     0.60993477
  WF centre and spread    7  (  6.874213,  6.850488, -7.648763 )     1.20500228
  WF centre and spread    8  (  6.873852,  3.470077, -0.022542 )     6.42231622
  WF centre and spread    9  (  7.816772, -7.396917,  7.648001 )     1.20139062
  WF centre and spread   10  (  6.874213,  6.850490,  7.648762 )     1.20500622
  WF centre and spread   11  (  6.874205, -6.712571,  7.937658 )     0.61134972
  WF centre and spread   12  ( -7.936204,  6.097678, -7.937658 )     0.65187002
  WF centre and spread   13  ( -1.065926, -0.001313,  2.706660 )     6.03763776
  WF centre and spread   14  (  7.935078, -6.095171, -7.937658 )     0.65162093
  WF centre and spread   15  (  5.931616, -7.396952, -7.647998 )     1.20134922
  WF centre and spread   16  (  7.816771, -7.396917, -7.648000 )     1.20139094
  WF centre and spread   17  (  5.931616, -7.396951,  7.647998 )     1.20134893
  WF centre and spread   18  (  5.809312,  6.097682, -7.937658 )     0.65186703
  Sum of centres and spreads ( 76.105762,  3.457720,-23.312546 )    31.46849232

     20    -0.568E-12                        31.4684923219       3.85  <-- CONV
        O_D=      0.0000000 O_OD=      2.5090291 O_TOT=     31.4684923 <-- SPRD
 Delta: O_D=  0.0000000E+00 O_OD= -0.5684342E-12 O_TOT= -0.5684342E-12 <-- DLTA
 ------------------------------------------------------------------------------
 Cycle:     21
  WF centre and spread    1  ( -1.064636, -7.936111, -2.183690 )     6.05016898
  WF centre and spread    2  ( -6.875134,  7.935472,  7.937658 )     0.65233998
  WF centre and spread    3  (  5.813346, -6.095176, -7.937658 )     0.65161738
  WF centre and spread    4  (  4.748247,  7.935471,  7.937658 )     0.65234064
  WF centre and spread    5  (  7.936084,  7.324220, -7.937658 )     0.60994069
  WF centre and spread    6  (  5.812338,  7.324223, -7.937658 )     0.60993477
  WF centre and spread    7  (  6.874213,  6.850488, -7.648763 )     1.20500231
  WF centre and spread    8  (  6.873852,  3.470077, -0.022542 )     6.42231622
  WF centre and spread    9  (  7.816772, -7.396917,  7.648001 )     1.20139056
  WF centre and spread   10  (  6.874213,  6.850490,  7.648762 )     1.20500621
  WF centre and spread   11  (  6.874205, -6.712571,  7.937658 )     0.61134972
  WF centre and spread   12  ( -7.936204,  6.097678, -7.937658 )     0.65187002
  WF centre and spread   13  ( -1.065926, -0.001313,  2.706660 )     6.03763776
  WF centre and spread   14  (  7.935078, -6.095171, -7.937658 )     0.65162093
  WF centre and spread   15  (  5.931617, -7.396952, -7.647998 )     1.20134926
  WF centre and spread   16  (  7.816771, -7.396917, -7.648000 )     1.20139096
  WF centre and spread   17  (  5.931616, -7.396951,  7.647998 )     1.20134891
  WF centre and spread   18  (  5.809312,  6.097682, -7.937658 )     0.65186703
  Sum of centres and spreads ( 76.105762,  3.457720,-23.312546 )    31.46849232

     21    -0.171E-12                        31.4684923219       3.86  <-- CONV
        O_D=      0.0000000 O_OD=      2.5090291 O_TOT=     31.4684923 <-- SPRD
 Delta: O_D=  0.0000000E+00 O_OD= -0.1705303E-12 O_TOT= -0.1705303E-12 <-- DLTA
 ------------------------------------------------------------------------------

             <<<     Delta < 1.000E-10  over  5 iterations     >>>
             <<< Wannierisation convergence criteria satisfied >>>

 Final State
  WF centre and spread    1  ( -1.064636, -7.936111, -2.183690 )     6.05016898
  WF centre and spread    2  ( -6.875134,  7.935472,  7.937658 )     0.65233998
  WF centre and spread    3  (  5.813346, -6.095176, -7.937658 )     0.65161738
  WF centre and spread    4  (  4.748247,  7.935471,  7.937658 )     0.65234064
  WF centre and spread    5  (  7.936084,  7.324220, -7.937658 )     0.60994069
  WF centre and spread    6  (  5.812338,  7.324223, -7.937658 )     0.60993477
  WF centre and spread    7  (  6.874213,  6.850488, -7.648763 )     1.20500231
  WF centre and spread    8  (  6.873852,  3.470077, -0.022542 )     6.42231622
  WF centre and spread    9  (  7.816772, -7.396917,  7.648001 )     1.20139056
  WF centre and spread   10  (  6.874213,  6.850490,  7.648762 )     1.20500621
  WF centre and spread   11  (  6.874205, -6.712571,  7.937658 )     0.61134972
  WF centre and spread   12  ( -7.936204,  6.097678, -7.937658 )     0.65187002
  WF centre and spread   13  ( -1.065926, -0.001313,  2.706660 )     6.03763776
  WF centre and spread   14  (  7.935078, -6.095171, -7.937658 )     0.65162093
  WF centre and spread   15  (  5.931617, -7.396952, -7.647998 )     1.20134926
  WF centre and spread   16  (  7.816771, -7.396917, -7.648000 )     1.20139096
  WF centre and spread   17  (  5.931616, -7.396951,  7.647998 )     1.20134891
  WF centre and spread   18  (  5.809312,  6.097682, -7.937658 )     0.65186703
  Sum of centres and spreads ( 76.105762,  3.457720,-23.312546 )    31.46849232

         Spreads (Ang^2)       Omega I      =    28.959463251
        ================       Omega D      =     0.000000000
                               Omega OD     =     2.509029070
    Final Spread (Ang^2)       Omega Total  =    31.468492322
 ------------------------------------------------------------------------------
 Time for wannierise            0.005 (sec)

 Writing checkpoint file benzene.chk... done

 Total Execution Time           3.856 (sec)

 *===========================================================================*
 |                             TIMING INFORMATION                            |
 *===========================================================================*
 |    Tag                                                Ncalls      Time (s)|
 |---------------------------------------------------------------------------|
 |kmesh: get                                        :         1         0.005|
 |overlap: read                                     :         1         0.039|
 |dis: main                                         :         1         3.803|
 |wann: main_gamma                                  :         1         0.005|
 *---------------------------------------------------------------------------*

 All done: wannier90 exiting
