
     Program PWSCF v.6.5 starts on 29Oct2020 at 16:21: 4 

     This program is part of the open-source Quantum ESPRESSO suite
     for quantum simulation of materials; please cite
         "P. Giannozzi et al., J. Phys.:Condens. Matter 21 395502 (2009);
         "P. Giannozzi et al., J. Phys.:Condens. Matter 29 465901 (2017);
          URL http://www.quantum-espresso.org", 
     in publications or presentations arising from this work. More details at
     http://www.quantum-espresso.org/quote

     Parallel version (MPI), running on    24 processors

     MPI processes distributed on     1 nodes
     R & G space division:  proc/nbgrp/npool/nimage =      24
     Waiting for input...
     Reading input from standard input
     Message from routine read_cards :
     DEPRECATED: no units specified in CELL_PARAMETERS card

     Current dimensions of program PWSCF are:
     Max number of different atomic species (ntypx) = 10
     Max number of k-points (npk) =  40000
     Max angular momentum in pseudopotentials (lmaxx) =  3
     Message from routine cell_base_init:
     DEPRECATED: use true lattice parameter, not A to a.u. conversion factor

     Atomic positions and unit cell read from directory:
     ./gh.save/                                                                                                                                                                                                                                                      


     Subspace diagonalization in iterative solution of the eigenvalue problem:
     a serial algorithm will be used


     Parallelization info
     --------------------
     sticks:   dense  smooth     PW     G-vecs:    dense   smooth      PW
     Min          10      10      4                  342      342      97
     Max          11      11      6                  351      351     102
     Sum         241     241    109                 8283     8283    2387



     bravais-lattice index     =            0
     lattice parameter (alat)  =       1.8897  a.u.
     unit-cell volume          =     240.4950 (a.u.)^3
     number of atoms/cell      =            4
     number of atomic types    =            1
     number of electrons       =        16.00
     number of Kohn-Sham states=           20
     kinetic-energy cutoff     =      40.0000  Ry
     charge density cutoff     =     160.0000  Ry
     Exchange-correlation=  SLA  PZ   NOGX NOGC
                           (   1   1   0   0   0   0   0)

     celldm(1)=   1.889726  celldm(2)=   0.000000  celldm(3)=   0.000000
     celldm(4)=   0.000000  celldm(5)=   0.000000  celldm(6)=   0.000000

     crystal axes: (cart. coord. in units of alat)
               a(1) = (   2.130422  -1.229999   0.000000 )  
               a(2) = (   0.000000   2.459999   0.000000 )  
               a(3) = (   0.000000   0.000000   6.800000 )  

     reciprocal axes: (cart. coord. in units 2 pi/alat)
               b(1) = (  0.469391  0.000000  0.000000 )  
               b(2) = (  0.234695  0.406504 -0.000000 )  
               b(3) = ( -0.000000  0.000000  0.147059 )  


     PseudoPot. # 1 for C  read from file:
     ../../pseudo/C.pz-vbc.UPF
     MD5 check sum: 902016046bf83189dffe9ec1c2a452ce
     Pseudo is Norm-conserving, Zval =  4.0
     Generated by new atomic code, or converted to UPF format
     Using radial grid of  269 points,  1 beta functions with: 
                l(1) =   0

     atomic species   valence    mass     pseudopotential
        C              4.00    12.00000     C ( 1.00)

     No symmetry found



   Cartesian axes

     site n.     atom                  positions (alat units)
         1           C   tau(   1) = (   0.0000000   0.0000000   1.7000000  )
         2           C   tau(   2) = (   0.0000000   0.0000000   5.1000000  )
         3           C   tau(   3) = (   0.7101405   1.2299995   1.7000000  )
         4           C   tau(   4) = (  -0.7101405  -1.2299995   5.1000000  )

     number of k points=    64  Marzari-Vanderbilt smearing, width (Ry)=  0.0200
                       cart. coord. in units 2pi/alat
        k(    1) = (   0.0000000   0.0000000   0.0000000), wk =   0.0312500
        k(    2) = (   0.0000000   0.0000000   0.0367647), wk =   0.0312500
        k(    3) = (   0.0000000   0.0000000   0.0735294), wk =   0.0312500
        k(    4) = (   0.0000000   0.0000000   0.1102941), wk =   0.0312500
        k(    5) = (   0.0586738   0.1016261   0.0000000), wk =   0.0312500
        k(    6) = (   0.0586738   0.1016261   0.0367647), wk =   0.0312500
        k(    7) = (   0.0586738   0.1016261   0.0735294), wk =   0.0312500
        k(    8) = (   0.0586738   0.1016261   0.1102941), wk =   0.0312500
        k(    9) = (   0.1173477   0.2032521   0.0000000), wk =   0.0312500
        k(   10) = (   0.1173477   0.2032521   0.0367647), wk =   0.0312500
        k(   11) = (   0.1173477   0.2032521   0.0735294), wk =   0.0312500
        k(   12) = (   0.1173477   0.2032521   0.1102941), wk =   0.0312500
        k(   13) = (   0.1760215   0.3048782   0.0000000), wk =   0.0312500
        k(   14) = (   0.1760215   0.3048782   0.0367647), wk =   0.0312500
        k(   15) = (   0.1760215   0.3048782   0.0735294), wk =   0.0312500
        k(   16) = (   0.1760215   0.3048782   0.1102941), wk =   0.0312500
        k(   17) = (   0.1173477   0.0000000   0.0000000), wk =   0.0312500
        k(   18) = (   0.1173477   0.0000000   0.0367647), wk =   0.0312500
        k(   19) = (   0.1173477   0.0000000   0.0735294), wk =   0.0312500
        k(   20) = (   0.1173477   0.0000000   0.1102941), wk =   0.0312500
        k(   21) = (   0.1760215   0.1016261   0.0000000), wk =   0.0312500
        k(   22) = (   0.1760215   0.1016261   0.0367647), wk =   0.0312500
        k(   23) = (   0.1760215   0.1016261   0.0735294), wk =   0.0312500
        k(   24) = (   0.1760215   0.1016261   0.1102941), wk =   0.0312500
        k(   25) = (   0.2346953   0.2032521   0.0000000), wk =   0.0312500
        k(   26) = (   0.2346953   0.2032521   0.0367647), wk =   0.0312500
        k(   27) = (   0.2346953   0.2032521   0.0735294), wk =   0.0312500
        k(   28) = (   0.2346953   0.2032521   0.1102941), wk =   0.0312500
        k(   29) = (   0.2933692   0.3048782   0.0000000), wk =   0.0312500
        k(   30) = (   0.2933692   0.3048782   0.0367647), wk =   0.0312500
        k(   31) = (   0.2933692   0.3048782   0.0735294), wk =   0.0312500
        k(   32) = (   0.2933692   0.3048782   0.1102941), wk =   0.0312500
        k(   33) = (   0.2346953   0.0000000   0.0000000), wk =   0.0312500
        k(   34) = (   0.2346953   0.0000000   0.0367647), wk =   0.0312500
        k(   35) = (   0.2346953   0.0000000   0.0735294), wk =   0.0312500
        k(   36) = (   0.2346953   0.0000000   0.1102941), wk =   0.0312500
        k(   37) = (   0.2933692   0.1016261   0.0000000), wk =   0.0312500
        k(   38) = (   0.2933692   0.1016261   0.0367647), wk =   0.0312500
        k(   39) = (   0.2933692   0.1016261   0.0735294), wk =   0.0312500
        k(   40) = (   0.2933692   0.1016261   0.1102941), wk =   0.0312500
        k(   41) = (   0.3520430   0.2032521   0.0000000), wk =   0.0312500
        k(   42) = (   0.3520430   0.2032521   0.0367647), wk =   0.0312500
        k(   43) = (   0.3520430   0.2032521   0.0735294), wk =   0.0312500
        k(   44) = (   0.3520430   0.2032521   0.1102941), wk =   0.0312500
        k(   45) = (   0.4107168   0.3048782   0.0000000), wk =   0.0312500
        k(   46) = (   0.4107168   0.3048782   0.0367647), wk =   0.0312500
        k(   47) = (   0.4107168   0.3048782   0.0735294), wk =   0.0312500
        k(   48) = (   0.4107168   0.3048782   0.1102941), wk =   0.0312500
        k(   49) = (   0.3520430   0.0000000   0.0000000), wk =   0.0312500
        k(   50) = (   0.3520430   0.0000000   0.0367647), wk =   0.0312500
        k(   51) = (   0.3520430   0.0000000   0.0735294), wk =   0.0312500
        k(   52) = (   0.3520430   0.0000000   0.1102941), wk =   0.0312500
        k(   53) = (   0.4107168   0.1016261   0.0000000), wk =   0.0312500
        k(   54) = (   0.4107168   0.1016261   0.0367647), wk =   0.0312500
        k(   55) = (   0.4107168   0.1016261   0.0735294), wk =   0.0312500
        k(   56) = (   0.4107168   0.1016261   0.1102941), wk =   0.0312500
        k(   57) = (   0.4693907   0.2032521   0.0000000), wk =   0.0312500
        k(   58) = (   0.4693907   0.2032521   0.0367647), wk =   0.0312500
        k(   59) = (   0.4693907   0.2032521   0.0735294), wk =   0.0312500
        k(   60) = (   0.4693907   0.2032521   0.1102941), wk =   0.0312500
        k(   61) = (   0.5280645   0.3048782   0.0000000), wk =   0.0312500
        k(   62) = (   0.5280645   0.3048782   0.0367647), wk =   0.0312500
        k(   63) = (   0.5280645   0.3048782   0.0735294), wk =   0.0312500
        k(   64) = (   0.5280645   0.3048782   0.1102941), wk =   0.0312500

     Dense  grid:     8283 G-vectors     FFT dimensions: (  20,  20,  54)

     Estimated max dynamical RAM per process >       0.18 MB

     Estimated total dynamical RAM >       4.34 MB

     The potential is recalculated from file :
     ./gh.save/charge-density

     Starting wfcs are random

     Band Structure Calculation
     CG style diagonalization
     c_bands:  1 eigenvalues not converged
     c_bands:  1 eigenvalues not converged
     c_bands:  1 eigenvalues not converged

     ethr =  6.25E-11,  avg # of iterations = 38.4

     total cpu time spent up to now is        8.2 secs

     End of band structure calculation

          k = 0.0000 0.0000 0.0000 (  1021 PWs)   bands (ev):

   -12.8130 -12.5167  -1.8905   0.0491   3.7714   3.7714   3.7730   3.7730
    10.4229  15.2191  15.2191  15.2394  15.2394  16.7174  18.6475  18.9011
    19.2909  19.4693  24.0280  28.5980

          k = 0.0000 0.0000 0.0368 (  1034 PWs)   bands (ev):

   -12.7729 -12.5640  -1.6565  -0.2926   3.7564   3.7564   3.7663   3.7663
    11.1649  15.2250  15.2250  15.2325  15.2325  15.3680  18.6827  18.7995
    19.3222  19.4498  25.6395  28.6534

          k = 0.0000 0.0000 0.0735 (  1058 PWs)   bands (ev):

   -12.6775 -12.6775  -1.0433  -1.0433   3.7599   3.7599   3.7599   3.7599
    13.0417  13.0417  15.2113  15.2113  15.2113  15.2113  18.7110  18.7110
    19.3873  19.3873  28.5811  28.5811

          k = 0.0000 0.0000 0.1103 (  1034 PWs)   bands (ev):

   -12.7729 -12.5640  -1.6565  -0.2926   3.7564   3.7564   3.7663   3.7663
    11.1649  15.2250  15.2250  15.2325  15.2325  15.3680  18.6827  18.7995
    19.3222  19.4498  25.6395  28.6534

          k = 0.0587 0.1016 0.0000 (  1028 PWs)   bands (ev):

   -11.3379 -11.0855  -0.7126  -0.6053  -0.0958   1.6907   1.7144   1.7470
    12.2577  13.9451  14.5936  14.6867  14.9614  18.1025  20.5033  20.5467
    21.7073  22.6133  25.4503  25.5766

          k = 0.0587 0.1016 0.0368 (  1027 PWs)   bands (ev):

   -11.3029 -11.1243  -0.6853  -0.6183   0.1307   1.4245   1.6909   1.7073
    12.9189  14.0520  14.4477  14.7228  14.9695  16.9570  20.5165  20.5469
    21.8391  22.4618  25.6870  26.2007

          k = 0.0587 0.1016 0.0735 (  1028 PWs)   bands (ev):

   -11.2183 -11.2183  -0.6527  -0.6527   0.7323   0.7323   1.6973   1.6973
    14.0918  14.0918  14.6547  14.6547  15.1136  15.1136  20.5278  20.5278
    22.1392  22.1392  26.1400  26.1400

          k = 0.0587 0.1016 0.1103 (  1027 PWs)   bands (ev):

   -11.3029 -11.1243  -0.6853  -0.6183   0.1307   1.4245   1.6909   1.7073
    12.9189  14.0520  14.4477  14.7228  14.9695  16.9570  20.5165  20.5469
    21.8391  22.4618  25.6870  26.2007

          k = 0.1173 0.2033 0.0000 (  1024 PWs)   bands (ev):

    -7.4318  -7.3289  -6.5600  -6.4822   0.2592   0.3443   3.9936   4.6564
     8.2162   8.9669  13.9147  14.2969  17.5815  17.6651  20.7744  21.7136
    26.6539  26.9383  27.3137  27.3343

          k = 0.1173 0.2033 0.0368 (  1020 PWs)   bands (ev):

    -7.4101  -7.3378  -6.5506  -6.4971   0.2613   0.3379   4.1073   4.6027
     8.2204   8.7665  13.9688  14.2415  18.1118  18.1592  20.3498  21.2351
    25.6965  26.8258  26.9665  27.5461

          k = 0.1173 0.2033 0.0735 (  1044 PWs)   bands (ev):

    -7.3747  -7.3747  -6.5326  -6.5326   0.2767   0.2767   4.3757   4.3757
     8.3728   8.3728  14.0988  14.0988  18.9972  18.9972  19.9334  19.9334
    25.8511  25.8511  27.5286  27.5286

          k = 0.1173 0.2033 0.1103 (  1020 PWs)   bands (ev):

    -7.4101  -7.3378  -6.5506  -6.4971   0.2613   0.3379   4.1073   4.6027
     8.2204   8.7665  13.9688  14.2415  18.1118  18.1592  20.3498  21.2351
    25.6965  26.8258  26.9665  27.5461

          k = 0.1760 0.3049 0.0000 (  1028 PWs)   bands (ev):

   -11.3379 -11.0855  -0.7126  -0.6053  -0.0958   1.6907   1.7144   1.7470
    12.2577  13.9451  14.5936  14.6867  14.9614  18.1025  20.5033  20.5467
    21.7073  22.6133  25.4503  25.5766

          k = 0.1760 0.3049 0.0368 (  1027 PWs)   bands (ev):

   -11.3029 -11.1243  -0.6853  -0.6183   0.1307   1.4245   1.6909   1.7073
    12.9189  14.0520  14.4477  14.7228  14.9695  16.9570  20.5165  20.5469
    21.8391  22.4618  25.6870  26.2007

          k = 0.1760 0.3049 0.0735 (  1028 PWs)   bands (ev):

   -11.2183 -11.2183  -0.6527  -0.6527   0.7323   0.7323   1.6973   1.6973
    14.0918  14.0918  14.6547  14.6547  15.1136  15.1136  20.5278  20.5278
    22.1392  22.1392  26.1400  26.1400

          k = 0.1760 0.3049 0.1103 (  1027 PWs)   bands (ev):

   -11.3029 -11.1243  -0.6853  -0.6183   0.1307   1.4245   1.6909   1.7073
    12.9189  14.0520  14.4477  14.7228  14.9695  16.9570  20.5165  20.5469
    21.8391  22.4618  25.6870  26.2007

          k = 0.1173 0.0000 0.0000 (  1028 PWs)   bands (ev):

   -11.3379 -11.0855  -0.7126  -0.6053  -0.0958   1.6907   1.7144   1.7470
    12.2577  13.9451  14.5936  14.6867  14.9614  18.1025  20.5033  20.5467
    21.7073  22.6133  25.4503  25.5766

          k = 0.1173 0.0000 0.0368 (  1027 PWs)   bands (ev):

   -11.3029 -11.1243  -0.6853  -0.6183   0.1307   1.4245   1.6909   1.7073
    12.9189  14.0520  14.4477  14.7228  14.9695  16.9570  20.5165  20.5469
    21.8391  22.4618  25.6870  26.2007

          k = 0.1173 0.0000 0.0735 (  1028 PWs)   bands (ev):

   -11.2183 -11.2183  -0.6527  -0.6527   0.7323   0.7323   1.6973   1.6973
    14.0918  14.0918  14.6547  14.6547  15.1136  15.1136  20.5278  20.5278
    22.1392  22.1392  26.1400  26.1400

          k = 0.1173 0.0000 0.1103 (  1027 PWs)   bands (ev):

   -11.3029 -11.1243  -0.6853  -0.6183   0.1307   1.4245   1.6909   1.7073
    12.9189  14.0520  14.4477  14.7228  14.9695  16.9570  20.5165  20.5469
    21.8391  22.4618  25.6870  26.2007

          k = 0.1760 0.1016 0.0000 (  1027 PWs)   bands (ev):

    -8.5013  -8.2941  -3.7394  -3.6708  -2.3277  -2.2784   3.2939   4.7522
     9.3864   9.9731  15.8493  18.2468  18.6028  18.8829  19.0143  19.7755
    20.0381  25.0816  25.1017  25.3037

          k = 0.1760 0.1016 0.0368 (  1029 PWs)   bands (ev):

    -8.4769  -8.3273  -3.7250  -3.6761  -2.3157  -2.2803   3.4778   4.4969
     9.4680   9.8822  16.1934  17.6456  18.8914  18.9364  19.1691  19.9395
    20.1022  22.9642  25.5182  26.4179

          k = 0.1760 0.1016 0.0735 (  1022 PWs)   bands (ev):

    -8.4051  -8.4051  -3.6993  -3.6993  -2.2979  -2.2979   3.9691   3.9691
     9.6922   9.6922  16.8806  16.8806  19.1384  19.1384  19.4862  19.4862
    21.0564  21.0564  26.5274  26.5274

          k = 0.1760 0.1016 0.1103 (  1029 PWs)   bands (ev):

    -8.4769  -8.3273  -3.7250  -3.6761  -2.3157  -2.2803   3.4778   4.4969
     9.4680   9.8822  16.1934  17.6456  18.8914  18.9364  19.1691  19.9395
    20.1022  22.9642  25.5182  26.4179

          k = 0.2347 0.2033 0.0000 (  1027 PWs)   bands (ev):

    -8.5013  -8.2941  -3.7394  -3.6708  -2.3277  -2.2784   3.2939   4.7522
     9.3864   9.9731  15.8493  18.2468  18.6028  18.8829  19.0143  19.7755
    20.0381  25.0816  25.1017  25.3037

          k = 0.2347 0.2033 0.0368 (  1029 PWs)   bands (ev):

    -8.4769  -8.3273  -3.7250  -3.6761  -2.3157  -2.2803   3.4778   4.4969
     9.4680   9.8822  16.1934  17.6456  18.8914  18.9364  19.1691  19.9395
    20.1022  22.9642  25.5182  26.4179

          k = 0.2347 0.2033 0.0735 (  1022 PWs)   bands (ev):

    -8.4051  -8.4051  -3.6993  -3.6993  -2.2979  -2.2979   3.9691   3.9691
     9.6922   9.6922  16.8806  16.8806  19.1384  19.1384  19.4862  19.4862
    21.0564  21.0564  26.5274  26.5274

          k = 0.2347 0.2033 0.1103 (  1029 PWs)   bands (ev):

    -8.4769  -8.3273  -3.7250  -3.6761  -2.3157  -2.2803   3.4778   4.4969
     9.4680   9.8822  16.1934  17.6456  18.8914  18.9364  19.1691  19.9395
    20.1022  22.9642  25.5182  26.4179

          k = 0.2934 0.3049 0.0000 (  1028 PWs)   bands (ev):

   -11.3379 -11.0855  -0.7126  -0.6053  -0.0958   1.6907   1.7144   1.7470
    12.2577  13.9451  14.5936  14.6867  14.9614  18.1025  20.5033  20.5467
    21.7073  22.6133  25.4503  25.5766

          k = 0.2934 0.3049 0.0368 (  1027 PWs)   bands (ev):

   -11.3029 -11.1243  -0.6853  -0.6183   0.1307   1.4245   1.6909   1.7073
    12.9189  14.0520  14.4477  14.7228  14.9695  16.9570  20.5165  20.5469
    21.8391  22.4618  25.6870  26.2007

          k = 0.2934 0.3049 0.0735 (  1028 PWs)   bands (ev):

   -11.2183 -11.2183  -0.6527  -0.6527   0.7323   0.7323   1.6973   1.6973
    14.0918  14.0918  14.6547  14.6547  15.1136  15.1136  20.5278  20.5278
    22.1392  22.1392  26.1400  26.1400

          k = 0.2934 0.3049 0.1103 (  1027 PWs)   bands (ev):

   -11.3029 -11.1243  -0.6853  -0.6183   0.1307   1.4245   1.6909   1.7073
    12.9189  14.0520  14.4477  14.7228  14.9695  16.9570  20.5165  20.5469
    21.8391  22.4618  25.6870  26.2007

          k = 0.2347 0.0000 0.0000 (  1024 PWs)   bands (ev):

    -7.4318  -7.3289  -6.5600  -6.4822   0.2592   0.3443   3.9936   4.6564
     8.2162   8.9669  13.9147  14.2969  17.5815  17.6651  20.7744  21.7136
    26.6539  26.9383  27.3137  27.3343

          k = 0.2347 0.0000 0.0368 (  1020 PWs)   bands (ev):

    -7.4101  -7.3378  -6.5506  -6.4971   0.2613   0.3379   4.1073   4.6027
     8.2204   8.7665  13.9688  14.2415  18.1118  18.1592  20.3498  21.2351
    25.6965  26.8258  26.9665  27.5461

          k = 0.2347 0.0000 0.0735 (  1044 PWs)   bands (ev):

    -7.3747  -7.3747  -6.5326  -6.5326   0.2767   0.2767   4.3757   4.3757
     8.3728   8.3728  14.0988  14.0988  18.9972  18.9972  19.9334  19.9334
    25.8511  25.8511  27.5286  27.5286

          k = 0.2347 0.0000 0.1103 (  1020 PWs)   bands (ev):

    -7.4101  -7.3378  -6.5506  -6.4971   0.2613   0.3379   4.1073   4.6027
     8.2204   8.7665  13.9688  14.2415  18.1118  18.1592  20.3498  21.2351
    25.6965  26.8258  26.9665  27.5461

          k = 0.2934 0.1016 0.0000 (  1027 PWs)   bands (ev):

    -8.5013  -8.2941  -3.7394  -3.6708  -2.3277  -2.2784   3.2939   4.7522
     9.3864   9.9731  15.8493  18.2468  18.6028  18.8829  19.0143  19.7755
    20.0381  25.0816  25.1017  25.3037

          k = 0.2934 0.1016 0.0368 (  1029 PWs)   bands (ev):

    -8.4769  -8.3273  -3.7250  -3.6761  -2.3157  -2.2803   3.4778   4.4969
     9.4680   9.8822  16.1934  17.6456  18.8914  18.9364  19.1691  19.9395
    20.1022  22.9642  25.5182  26.4179

          k = 0.2934 0.1016 0.0735 (  1022 PWs)   bands (ev):

    -8.4051  -8.4051  -3.6993  -3.6993  -2.2979  -2.2979   3.9691   3.9691
     9.6922   9.6922  16.8806  16.8806  19.1384  19.1384  19.4862  19.4862
    21.0564  21.0564  26.5274  26.5274

          k = 0.2934 0.1016 0.1103 (  1029 PWs)   bands (ev):

    -8.4769  -8.3273  -3.7250  -3.6761  -2.3157  -2.2803   3.4778   4.4969
     9.4680   9.8822  16.1934  17.6456  18.8914  18.9364  19.1691  19.9395
    20.1022  22.9642  25.5182  26.4179

          k = 0.3520 0.2033 0.0000 (  1024 PWs)   bands (ev):

    -7.4318  -7.3289  -6.5600  -6.4822   0.2592   0.3443   3.9936   4.6564
     8.2162   8.9669  13.9147  14.2969  17.5815  17.6651  20.7744  21.7136
    26.6539  26.9383  27.3137  27.3343

          k = 0.3520 0.2033 0.0368 (  1020 PWs)   bands (ev):

    -7.4101  -7.3378  -6.5506  -6.4971   0.2613   0.3379   4.1073   4.6027
     8.2204   8.7665  13.9688  14.2415  18.1118  18.1592  20.3498  21.2351
    25.6965  26.8258  26.9665  27.5461

          k = 0.3520 0.2033 0.0735 (  1044 PWs)   bands (ev):

    -7.3747  -7.3747  -6.5326  -6.5326   0.2767   0.2767   4.3757   4.3757
     8.3728   8.3728  14.0988  14.0988  18.9972  18.9972  19.9334  19.9334
    25.8511  25.8511  27.5286  27.5286

          k = 0.3520 0.2033 0.1103 (  1020 PWs)   bands (ev):

    -7.4101  -7.3378  -6.5506  -6.4971   0.2613   0.3379   4.1073   4.6027
     8.2204   8.7665  13.9688  14.2415  18.1118  18.1592  20.3498  21.2351
    25.6965  26.8258  26.9665  27.5461

          k = 0.4107 0.3049 0.0000 (  1027 PWs)   bands (ev):

    -8.5013  -8.2941  -3.7394  -3.6708  -2.3277  -2.2784   3.2939   4.7522
     9.3864   9.9731  15.8493  18.2468  18.6028  18.8829  19.0143  19.7755
    20.0381  25.0816  25.1017  25.3037

          k = 0.4107 0.3049 0.0368 (  1029 PWs)   bands (ev):

    -8.4769  -8.3273  -3.7250  -3.6761  -2.3157  -2.2803   3.4778   4.4969
     9.4680   9.8822  16.1934  17.6456  18.8914  18.9364  19.1691  19.9395
    20.1022  22.9642  25.5182  26.4179

          k = 0.4107 0.3049 0.0735 (  1022 PWs)   bands (ev):

    -8.4051  -8.4051  -3.6993  -3.6993  -2.2979  -2.2979   3.9691   3.9691
     9.6922   9.6922  16.8806  16.8806  19.1384  19.1384  19.4862  19.4862
    21.0564  21.0564  26.5274  26.5274

          k = 0.4107 0.3049 0.1103 (  1029 PWs)   bands (ev):

    -8.4769  -8.3273  -3.7250  -3.6761  -2.3157  -2.2803   3.4778   4.4969
     9.4680   9.8822  16.1934  17.6456  18.8914  18.9364  19.1691  19.9395
    20.1022  22.9642  25.5182  26.4179

          k = 0.3520 0.0000 0.0000 (  1028 PWs)   bands (ev):

   -11.3379 -11.0855  -0.7126  -0.6053  -0.0958   1.6907   1.7144   1.7470
    12.2577  13.9451  14.5936  14.6867  14.9614  18.1025  20.5033  20.5467
    21.7073  22.6133  25.4503  25.5766

          k = 0.3520 0.0000 0.0368 (  1027 PWs)   bands (ev):

   -11.3029 -11.1243  -0.6853  -0.6183   0.1307   1.4245   1.6909   1.7073
    12.9189  14.0520  14.4477  14.7228  14.9695  16.9570  20.5165  20.5469
    21.8391  22.4618  25.6870  26.2007

          k = 0.3520 0.0000 0.0735 (  1028 PWs)   bands (ev):

   -11.2183 -11.2183  -0.6527  -0.6527   0.7323   0.7323   1.6973   1.6973
    14.0918  14.0918  14.6547  14.6547  15.1136  15.1136  20.5278  20.5278
    22.1392  22.1392  26.1400  26.1400

          k = 0.3520 0.0000 0.1103 (  1027 PWs)   bands (ev):

   -11.3029 -11.1243  -0.6853  -0.6183   0.1307   1.4245   1.6909   1.7073
    12.9189  14.0520  14.4477  14.7228  14.9695  16.9570  20.5165  20.5469
    21.8391  22.4618  25.6870  26.2007

          k = 0.4107 0.1016 0.0000 (  1028 PWs)   bands (ev):

   -11.3379 -11.0855  -0.7126  -0.6053  -0.0958   1.6907   1.7144   1.7470
    12.2577  13.9451  14.5936  14.6867  14.9614  18.1025  20.5033  20.5467
    21.7073  22.6133  25.4503  25.5766

          k = 0.4107 0.1016 0.0368 (  1027 PWs)   bands (ev):

   -11.3029 -11.1243  -0.6853  -0.6183   0.1307   1.4245   1.6909   1.7073
    12.9189  14.0520  14.4477  14.7228  14.9695  16.9570  20.5165  20.5469
    21.8391  22.4618  25.6870  26.2007

          k = 0.4107 0.1016 0.0735 (  1028 PWs)   bands (ev):

   -11.2183 -11.2183  -0.6527  -0.6527   0.7323   0.7323   1.6973   1.6973
    14.0918  14.0918  14.6547  14.6547  15.1136  15.1136  20.5278  20.5278
    22.1392  22.1392  26.1400  26.1400

          k = 0.4107 0.1016 0.1103 (  1027 PWs)   bands (ev):

   -11.3029 -11.1243  -0.6853  -0.6183   0.1307   1.4245   1.6909   1.7073
    12.9189  14.0520  14.4477  14.7228  14.9695  16.9570  20.5165  20.5469
    21.8391  22.4618  25.6870  26.2007

          k = 0.4694 0.2033 0.0000 (  1027 PWs)   bands (ev):

    -8.5013  -8.2941  -3.7394  -3.6708  -2.3277  -2.2784   3.2939   4.7522
     9.3864   9.9731  15.8493  18.2468  18.6028  18.8829  19.0143  19.7755
    20.0381  25.0816  25.1017  25.3037

          k = 0.4694 0.2033 0.0368 (  1029 PWs)   bands (ev):

    -8.4769  -8.3273  -3.7250  -3.6761  -2.3157  -2.2803   3.4778   4.4969
     9.4680   9.8822  16.1934  17.6456  18.8914  18.9364  19.1691  19.9395
    20.1022  22.9642  25.5182  26.4179

          k = 0.4694 0.2033 0.0735 (  1022 PWs)   bands (ev):

    -8.4051  -8.4051  -3.6993  -3.6993  -2.2979  -2.2979   3.9691   3.9691
     9.6922   9.6922  16.8806  16.8806  19.1384  19.1384  19.4862  19.4862
    21.0564  21.0564  26.5274  26.5274

          k = 0.4694 0.2033 0.1103 (  1029 PWs)   bands (ev):

    -8.4769  -8.3273  -3.7250  -3.6761  -2.3157  -2.2803   3.4778   4.4969
     9.4680   9.8822  16.1934  17.6456  18.8914  18.9364  19.1691  19.9395
    20.1022  22.9642  25.5182  26.4179

          k = 0.5281 0.3049 0.0000 (  1027 PWs)   bands (ev):

    -8.5013  -8.2941  -3.7394  -3.6708  -2.3277  -2.2784   3.2939   4.7522
     9.3864   9.9731  15.8493  18.2468  18.6028  18.8829  19.0143  19.7755
    20.0381  25.0816  25.1017  25.3037

          k = 0.5281 0.3049 0.0368 (  1029 PWs)   bands (ev):

    -8.4769  -8.3273  -3.7250  -3.6761  -2.3157  -2.2803   3.4778   4.4969
     9.4680   9.8822  16.1934  17.6456  18.8914  18.9364  19.1691  19.9395
    20.1022  22.9642  25.5182  26.4179

          k = 0.5281 0.3049 0.0735 (  1022 PWs)   bands (ev):

    -8.4051  -8.4051  -3.6993  -3.6993  -2.2979  -2.2979   3.9691   3.9691
     9.6922   9.6922  16.8806  16.8806  19.1384  19.1384  19.4862  19.4862
    21.0564  21.0564  26.5274  26.5274

          k = 0.5281 0.3049 0.1103 (  1029 PWs)   bands (ev):

    -8.4769  -8.3273  -3.7250  -3.6761  -2.3157  -2.2803   3.4778   4.4969
     9.4680   9.8822  16.1934  17.6456  18.8914  18.9364  19.1691  19.9395
    20.1022  22.9642  25.5182  26.4179

     the Fermi energy is     4.8844 ev

     Writing output data file ./gh.save/

     init_run     :      0.01s CPU      0.07s WALL (       1 calls)
     electrons    :      6.68s CPU      8.01s WALL (       1 calls)

     Called by init_run:
     wfcinit      :      0.00s CPU      0.05s WALL (       1 calls)
     potinit      :      0.00s CPU      0.00s WALL (       1 calls)
     hinit0       :      0.01s CPU      0.01s WALL (       1 calls)

     Called by electrons:
     c_bands      :      6.68s CPU      8.01s WALL (       1 calls)
     v_of_rho     :      0.00s CPU      0.00s WALL (       1 calls)

     Called by c_bands:
     init_us_2    :      0.00s CPU      0.00s WALL (      64 calls)
     ccgdiagg     :      6.18s CPU      7.42s WALL (     202 calls)
     wfcrot       :      0.36s CPU      0.42s WALL (     202 calls)

     Called by sum_band:

     Called by *cgdiagg:
     h_psi        :      4.53s CPU      5.42s WALL (   45417 calls)
     cdiaghg      :      0.02s CPU      0.02s WALL (     202 calls)

     Called by h_psi:
     h_psi:calbec :      0.41s CPU      0.50s WALL (   45417 calls)
     vloc_psi     :      3.77s CPU      4.51s WALL (   45417 calls)
     add_vuspsi   :      0.10s CPU      0.12s WALL (   45417 calls)
     hs_1psi      :      4.58s CPU      5.49s WALL (   45215 calls)
     s_1psi       :      0.50s CPU      0.59s WALL (   45215 calls)

     General routines
     calbec       :      0.53s CPU      0.64s WALL (   90632 calls)
     fft          :      0.01s CPU      0.01s WALL (       3 calls)
     fftw         :      3.45s CPU      4.13s WALL (   98510 calls)
     davcio       :      0.01s CPU      0.04s WALL (     128 calls)

     Parallel routines
     fft_scatt_xy :      0.29s CPU      0.35s WALL (   98513 calls)
     fft_scatt_yz :      1.92s CPU      2.30s WALL (   98513 calls)

     PWSCF        :      6.87s CPU      9.32s WALL


   This run was terminated on:  16:21:13  29Oct2020            

=------------------------------------------------------------------------------=
   JOB DONE.
=------------------------------------------------------------------------------=
