
     Program PWSCF v.6.5 starts on 29Oct2020 at 16:20:48 

     This program is part of the open-source Quantum ESPRESSO suite
     for quantum simulation of materials; please cite
         "P. Giannozzi et al., J. Phys.:Condens. Matter 21 395502 (2009);
         "P. Giannozzi et al., J. Phys.:Condens. Matter 29 465901 (2017);
          URL http://www.quantum-espresso.org", 
     in publications or presentations arising from this work. More details at
     http://www.quantum-espresso.org/quote

     Parallel version (MPI), running on    24 processors

     MPI processes distributed on     1 nodes
     R & G space division:  proc/nbgrp/npool/nimage =      24
     Waiting for input...
     Reading input from standard input
     Message from routine read_cards :
     DEPRECATED: no units specified in CELL_PARAMETERS card

     Current dimensions of program PWSCF are:
     Max number of different atomic species (ntypx) = 10
     Max number of k-points (npk) =  40000
     Max angular momentum in pseudopotentials (lmaxx) =  3
     Message from routine cell_base_init:
     DEPRECATED: use true lattice parameter, not A to a.u. conversion factor

     Subspace diagonalization in iterative solution of the eigenvalue problem:
     a serial algorithm will be used

     Message from routine setup:
     using ibrav=0 with symmetry is DISCOURAGED, use correct ibrav instead

     Parallelization info
     --------------------
     sticks:   dense  smooth     PW     G-vecs:    dense   smooth      PW
     Min          10      10      3                  342      342      62
     Max          11      11      5                  351      351      68
     Sum         241     241     85                 8283     8283    1541



     bravais-lattice index     =            0
     lattice parameter (alat)  =       1.8897  a.u.
     unit-cell volume          =     240.4950 (a.u.)^3
     number of atoms/cell      =            4
     number of atomic types    =            1
     number of electrons       =        16.00
     number of Kohn-Sham states=           12
     kinetic-energy cutoff     =      40.0000  Ry
     charge density cutoff     =     160.0000  Ry
     convergence threshold     =      1.0E-08
     mixing beta               =       0.7000
     number of iterations used =            8  plain     mixing
     Exchange-correlation=  SLA  PZ   NOGX NOGC
                           (   1   1   0   0   0   0   0)

     celldm(1)=   1.889726  celldm(2)=   0.000000  celldm(3)=   0.000000
     celldm(4)=   0.000000  celldm(5)=   0.000000  celldm(6)=   0.000000

     crystal axes: (cart. coord. in units of alat)
               a(1) = (   2.130422  -1.229999   0.000000 )  
               a(2) = (   0.000000   2.459999   0.000000 )  
               a(3) = (   0.000000   0.000000   6.800000 )  

     reciprocal axes: (cart. coord. in units 2 pi/alat)
               b(1) = (  0.469391  0.000000  0.000000 )  
               b(2) = (  0.234695  0.406504 -0.000000 )  
               b(3) = ( -0.000000  0.000000  0.147059 )  


     PseudoPot. # 1 for C  read from file:
     ../../pseudo/C.pz-vbc.UPF
     MD5 check sum: 902016046bf83189dffe9ec1c2a452ce
     Pseudo is Norm-conserving, Zval =  4.0
     Generated by new atomic code, or converted to UPF format
     Using radial grid of  269 points,  1 beta functions with: 
                l(1) =   0

     atomic species   valence    mass     pseudopotential
        C              4.00    12.00000     C ( 1.00)

     24 Sym. Ops., with inversion, found (12 have fractional translation)



   Cartesian axes

     site n.     atom                  positions (alat units)
         1           C   tau(   1) = (   0.0000000   0.0000000   1.7000000  )
         2           C   tau(   2) = (   0.0000000   0.0000000   5.1000000  )
         3           C   tau(   3) = (   0.7101405   1.2299995   1.7000000  )
         4           C   tau(   4) = (  -0.7101405  -1.2299995   5.1000000  )

     number of k points=    84  Marzari-Vanderbilt smearing, width (Ry)=  0.0200
                       cart. coord. in units 2pi/alat
        k(    1) = (   0.0000000   0.0000000   0.0000000), wk =   0.0020000
        k(    2) = (   0.0000000   0.0000000   0.0147059), wk =   0.0040000
        k(    3) = (   0.0000000   0.0000000   0.0294118), wk =   0.0040000
        k(    4) = (   0.0000000   0.0000000   0.0441176), wk =   0.0040000
        k(    5) = (   0.0000000   0.0000000   0.0588235), wk =   0.0040000
        k(    6) = (   0.0000000   0.0000000  -0.0735294), wk =   0.0020000
        k(    7) = (   0.0234695   0.0406504   0.0000000), wk =   0.0120000
        k(    8) = (   0.0234695   0.0406504   0.0147059), wk =   0.0240000
        k(    9) = (   0.0234695   0.0406504   0.0294118), wk =   0.0240000
        k(   10) = (   0.0234695   0.0406504   0.0441176), wk =   0.0240000
        k(   11) = (   0.0234695   0.0406504   0.0588235), wk =   0.0240000
        k(   12) = (   0.0234695   0.0406504  -0.0735294), wk =   0.0120000
        k(   13) = (   0.0469391   0.0813008   0.0000000), wk =   0.0120000
        k(   14) = (   0.0469391   0.0813008   0.0147059), wk =   0.0240000
        k(   15) = (   0.0469391   0.0813008   0.0294118), wk =   0.0240000
        k(   16) = (   0.0469391   0.0813008   0.0441176), wk =   0.0240000
        k(   17) = (   0.0469391   0.0813008   0.0588235), wk =   0.0240000
        k(   18) = (   0.0469391   0.0813008  -0.0735294), wk =   0.0120000
        k(   19) = (   0.0704086   0.1219513   0.0000000), wk =   0.0120000
        k(   20) = (   0.0704086   0.1219513   0.0147059), wk =   0.0240000
        k(   21) = (   0.0704086   0.1219513   0.0294118), wk =   0.0240000
        k(   22) = (   0.0704086   0.1219513   0.0441176), wk =   0.0240000
        k(   23) = (   0.0704086   0.1219513   0.0588235), wk =   0.0240000
        k(   24) = (   0.0704086   0.1219513  -0.0735294), wk =   0.0120000
        k(   25) = (   0.0938781   0.1626017   0.0000000), wk =   0.0120000
        k(   26) = (   0.0938781   0.1626017   0.0147059), wk =   0.0240000
        k(   27) = (   0.0938781   0.1626017   0.0294118), wk =   0.0240000
        k(   28) = (   0.0938781   0.1626017   0.0441176), wk =   0.0240000
        k(   29) = (   0.0938781   0.1626017   0.0588235), wk =   0.0240000
        k(   30) = (   0.0938781   0.1626017  -0.0735294), wk =   0.0120000
        k(   31) = (  -0.1173477  -0.2032521   0.0000000), wk =   0.0060000
        k(   32) = (  -0.1173477  -0.2032521   0.0147059), wk =   0.0120000
        k(   33) = (  -0.1173477  -0.2032521   0.0294118), wk =   0.0120000
        k(   34) = (  -0.1173477  -0.2032521   0.0441176), wk =   0.0120000
        k(   35) = (  -0.1173477  -0.2032521   0.0588235), wk =   0.0120000
        k(   36) = (  -0.1173477  -0.2032521  -0.0735294), wk =   0.0060000
        k(   37) = (   0.0704086   0.0406504   0.0000000), wk =   0.0120000
        k(   38) = (   0.0704086   0.0406504   0.0147059), wk =   0.0240000
        k(   39) = (   0.0704086   0.0406504   0.0294118), wk =   0.0240000
        k(   40) = (   0.0704086   0.0406504   0.0441176), wk =   0.0240000
        k(   41) = (   0.0704086   0.0406504   0.0588235), wk =   0.0240000
        k(   42) = (   0.0704086   0.0406504  -0.0735294), wk =   0.0120000
        k(   43) = (   0.0938781   0.0813008   0.0000000), wk =   0.0240000
        k(   44) = (   0.0938781   0.0813008   0.0147059), wk =   0.0480000
        k(   45) = (   0.0938781   0.0813008   0.0294118), wk =   0.0480000
        k(   46) = (   0.0938781   0.0813008   0.0441176), wk =   0.0480000
        k(   47) = (   0.0938781   0.0813008   0.0588235), wk =   0.0480000
        k(   48) = (   0.0938781   0.0813008  -0.0735294), wk =   0.0240000
        k(   49) = (   0.1173477   0.1219513   0.0000000), wk =   0.0240000
        k(   50) = (   0.1173477   0.1219513   0.0147059), wk =   0.0480000
        k(   51) = (   0.1173477   0.1219513   0.0294118), wk =   0.0480000
        k(   52) = (   0.1173477   0.1219513   0.0441176), wk =   0.0480000
        k(   53) = (   0.1173477   0.1219513   0.0588235), wk =   0.0480000
        k(   54) = (   0.1173477   0.1219513  -0.0735294), wk =   0.0240000
        k(   55) = (   0.1408172   0.1626017   0.0000000), wk =   0.0240000
        k(   56) = (   0.1408172   0.1626017   0.0147059), wk =   0.0480000
        k(   57) = (   0.1408172   0.1626017   0.0294118), wk =   0.0480000
        k(   58) = (   0.1408172   0.1626017   0.0441176), wk =   0.0480000
        k(   59) = (   0.1408172   0.1626017   0.0588235), wk =   0.0480000
        k(   60) = (   0.1408172   0.1626017  -0.0735294), wk =   0.0240000
        k(   61) = (   0.1408172   0.0813008   0.0000000), wk =   0.0120000
        k(   62) = (   0.1408172   0.0813008   0.0147059), wk =   0.0240000
        k(   63) = (   0.1408172   0.0813008   0.0294118), wk =   0.0240000
        k(   64) = (   0.1408172   0.0813008   0.0441176), wk =   0.0240000
        k(   65) = (   0.1408172   0.0813008   0.0588235), wk =   0.0240000
        k(   66) = (   0.1408172   0.0813008  -0.0735294), wk =   0.0120000
        k(   67) = (   0.1642867   0.1219513   0.0000000), wk =   0.0240000
        k(   68) = (   0.1642867   0.1219513   0.0147059), wk =   0.0480000
        k(   69) = (   0.1642867   0.1219513   0.0294118), wk =   0.0480000
        k(   70) = (   0.1642867   0.1219513   0.0441176), wk =   0.0480000
        k(   71) = (   0.1642867   0.1219513   0.0588235), wk =   0.0480000
        k(   72) = (   0.1642867   0.1219513  -0.0735294), wk =   0.0240000
        k(   73) = (   0.1877563   0.1626017   0.0000000), wk =   0.0120000
        k(   74) = (   0.1877563   0.1626017   0.0147059), wk =   0.0240000
        k(   75) = (   0.1877563   0.1626017   0.0294118), wk =   0.0240000
        k(   76) = (   0.1877563   0.1626017   0.0441176), wk =   0.0240000
        k(   77) = (   0.1877563   0.1626017   0.0588235), wk =   0.0240000
        k(   78) = (   0.1877563   0.1626017  -0.0735294), wk =   0.0120000
        k(   79) = (   0.2112258   0.1219513   0.0000000), wk =   0.0120000
        k(   80) = (   0.2112258   0.1219513   0.0147059), wk =   0.0240000
        k(   81) = (   0.2112258   0.1219513   0.0294118), wk =   0.0240000
        k(   82) = (   0.2112258   0.1219513   0.0441176), wk =   0.0240000
        k(   83) = (   0.2112258   0.1219513   0.0588235), wk =   0.0240000
        k(   84) = (   0.2112258   0.1219513  -0.0735294), wk =   0.0120000

     Dense  grid:     8283 G-vectors     FFT dimensions: (  20,  20,  54)

     Estimated max dynamical RAM per process >       0.91 MB

     Estimated total dynamical RAM >      21.72 MB

     Initial potential from superposition of free atoms

     starting charge   15.99989, renormalised to   16.00000
     Starting wfcs are random

     total cpu time spent up to now is        0.2 secs

     Self-consistent Calculation

     iteration #  1     ecut=    40.00 Ry     beta= 0.70
     CG style diagonalization
     ethr =  1.00E-02,  avg # of iterations =  8.9

     total cpu time spent up to now is        1.6 secs

     total energy              =     -45.27689513 Ry
     Harris-Foulkes estimate   =     -45.52740184 Ry
     estimated scf accuracy    <       0.40447445 Ry

     iteration #  2     ecut=    40.00 Ry     beta= 0.70
     CG style diagonalization
     ethr =  2.53E-03,  avg # of iterations =  3.6

     total cpu time spent up to now is        2.2 secs

     total energy              =     -45.37987317 Ry
     Harris-Foulkes estimate   =     -45.38193698 Ry
     estimated scf accuracy    <       0.00654629 Ry

     iteration #  3     ecut=    40.00 Ry     beta= 0.70
     CG style diagonalization
     c_bands:  1 eigenvalues not converged
     ethr =  4.09E-05,  avg # of iterations =  5.0

     total cpu time spent up to now is        3.0 secs

     total energy              =     -45.38123394 Ry
     Harris-Foulkes estimate   =     -45.38133138 Ry
     estimated scf accuracy    <       0.00049521 Ry

     iteration #  4     ecut=    40.00 Ry     beta= 0.70
     CG style diagonalization
     c_bands:  1 eigenvalues not converged
     c_bands:  1 eigenvalues not converged
     ethr =  3.10E-06,  avg # of iterations =  3.9

     total cpu time spent up to now is        3.6 secs

     total energy              =     -45.38128127 Ry
     Harris-Foulkes estimate   =     -45.38128578 Ry
     estimated scf accuracy    <       0.00000902 Ry

     iteration #  5     ecut=    40.00 Ry     beta= 0.70
     CG style diagonalization
     c_bands:  1 eigenvalues not converged
     ethr =  5.64E-08,  avg # of iterations =  4.1

     total cpu time spent up to now is        4.2 secs

     total energy              =     -45.38128817 Ry
     Harris-Foulkes estimate   =     -45.38128828 Ry
     estimated scf accuracy    <       0.00000041 Ry

     iteration #  6     ecut=    40.00 Ry     beta= 0.70
     CG style diagonalization
     ethr =  2.57E-09,  avg # of iterations =  3.2

     total cpu time spent up to now is        4.7 secs

     total energy              =     -45.38128822 Ry
     Harris-Foulkes estimate   =     -45.38128822 Ry
     estimated scf accuracy    <       0.00000001 Ry

     iteration #  7     ecut=    40.00 Ry     beta= 0.70
     CG style diagonalization
     ethr =  9.22E-11,  avg # of iterations =  3.7

     total cpu time spent up to now is        5.2 secs

     End of self-consistent calculation

          k = 0.0000 0.0000 0.0000 (  1021 PWs)   bands (ev):

   -12.8130 -12.5166  -1.8905   0.0492   3.7715   3.7715   3.7731   3.7731
    10.4230  15.2192  15.2227  15.2395

          k = 0.0000 0.0000 0.0147 (  1028 PWs)   bands (ev):

   -12.8066 -12.5257  -1.8555  -0.0110   3.7676   3.7676   3.7692   3.7692
    10.5465  15.2230  15.2241  15.2392

          k = 0.0000 0.0000 0.0294 (  1028 PWs)   bands (ev):

   -12.7871 -12.5474  -1.7384  -0.1786   3.7681   3.7681   3.7683   3.7683
    10.9060  15.2269  15.2348  15.2358

          k = 0.0000 0.0000 0.0441 (  1040 PWs)   bands (ev):

   -12.7562 -12.5864  -1.5607  -0.4243   3.7568   3.7568   3.7654   3.7654
    11.4707  14.9129  15.2136  15.2291

          k = 0.0000 0.0000 0.0588 (  1052 PWs)   bands (ev):

   -12.7209 -12.6322  -1.3267  -0.7362   3.7583   3.7583   3.7631   3.7631
    12.1939  13.9666  15.2049  15.2189

          k = 0.0000 0.0000-0.0735 (  1058 PWs)   bands (ev):

   -12.6774 -12.6774  -1.0432  -1.0432   3.7599   3.7599   3.7599   3.7599
    13.0417  13.0417  15.2113  15.2114

          k = 0.0235 0.0407 0.0000 (  1032 PWs)   bands (ev):

   -12.5756 -12.2919  -1.6057   0.3244   2.8253   2.8512   3.2800   3.2938
    10.7164  15.2253  15.3076  16.2624

          k = 0.0235 0.0407 0.0147 (  1029 PWs)   bands (ev):

   -12.5688 -12.2984  -1.5680   0.2663   2.8300   2.8521   3.2818   3.2959
    10.8389  15.2277  15.3059  16.2625

          k = 0.0235 0.0407 0.0294 (  1033 PWs)   bands (ev):

   -12.5513 -12.3196  -1.4543   0.0943   2.8328   2.8497   3.2769   3.2847
    11.1936  15.2295  15.2989  16.0407

          k = 0.0235 0.0407 0.0441 (  1035 PWs)   bands (ev):

   -12.5203 -12.3545  -1.2722  -0.1488   2.8357   2.8574   3.2677   3.2794
    11.7521  15.0800  15.2970  15.3418

          k = 0.0235 0.0407 0.0588 (  1031 PWs)   bands (ev):

   -12.4823 -12.3946  -1.0293  -0.4426   2.8492   2.8532   3.2770   3.2819
    12.4719  14.2187  15.2812  15.2943

          k = 0.0235 0.0407-0.0735 (  1034 PWs)   bands (ev):

   -12.4396 -12.4396  -0.7495  -0.7495   2.8489   2.8489   3.2810   3.2810
    13.3093  13.3093  15.2831  15.2831

          k = 0.0469 0.0813 0.0000 (  1028 PWs)   bands (ev):

   -11.8650 -11.6028  -0.7402   0.5992   0.6896   1.1497   2.2265   2.2433
    11.5986  14.9327  15.1534  15.4110

          k = 0.0469 0.0813 0.0147 (  1032 PWs)   bands (ev):

   -11.8613 -11.6086  -0.7025   0.5978   0.6863   1.0841   2.2283   2.2389
    11.7159  14.9330  15.1395  15.4280

          k = 0.0469 0.0813 0.0294 (  1033 PWs)   bands (ev):

   -11.8430 -11.6288  -0.5903   0.6030   0.6785   0.9232   2.2276   2.2360
    12.0583  14.9352  15.1182  15.4626

          k = 0.0469 0.0813 0.0441 (  1027 PWs)   bands (ev):

   -11.8139 -11.6592  -0.4089   0.6156   0.6712   0.6883   2.2332   2.2363
    12.5957  14.9320  15.0954  15.4914

          k = 0.0469 0.0813 0.0588 (  1032 PWs)   bands (ev):

   -11.7785 -11.6982  -0.1739   0.4010   0.6253   0.6663   2.2277   2.2367
    13.2827  14.7753  15.0534  15.1682

          k = 0.0469 0.0813-0.0735 (  1028 PWs)   bands (ev):

   -11.7395 -11.7395   0.1078   0.1078   0.6541   0.6541   2.2335   2.2335
    14.0639  14.0641  15.0594  15.0594

          k = 0.0704 0.1220 0.0000 (  1030 PWs)   bands (ev):

   -10.7018 -10.4570  -2.0316  -1.9362   0.6765   1.2103   1.2391   2.4331
    12.3987  13.0570  13.2375  14.4391

          k = 0.0704 0.1220 0.0147 (  1032 PWs)   bands (ev):

   -10.6971 -10.4639  -2.0306  -1.9392   0.7129   1.1949   1.2354   2.3882
    12.3988  13.1570  13.2244  14.4507

          k = 0.0704 0.1220 0.0294 (  1029 PWs)   bands (ev):

   -10.6803 -10.4806  -2.0228  -1.9415   0.8190   1.1995   1.2327   2.2414
    12.4339  13.1180  13.5310  14.4710

          k = 0.0704 0.1220 0.0441 (  1025 PWs)   bands (ev):

   -10.6535 -10.5091  -2.0091  -1.9513   0.9956   1.2044   1.2384   2.0210
    12.5015  13.0095  14.0256  14.5045

          k = 0.0704 0.1220 0.0588 (  1025 PWs)   bands (ev):

   -10.6223 -10.5449  -1.9910  -1.9684   1.2177   1.2184   1.2336   1.7493
    12.6086  12.8856  14.4637  14.5442

          k = 0.0704 0.1220-0.0735 (  1028 PWs)   bands (ev):

   -10.5837 -10.5837  -1.9870  -1.9870   1.2254   1.2254   1.4750   1.4750
    12.7415  12.7415  14.5510  14.5511

          k = 0.0939 0.1626 0.0000 (  1030 PWs)   bands (ev):

    -9.1101  -8.8891  -4.6496  -4.4818   0.5102   0.5595   2.5194   3.9845
     9.5322  10.5736  14.0510  14.3927

          k = 0.0939 0.1626 0.0147 (  1029 PWs)   bands (ev):

    -9.1070  -8.8952  -4.6454  -4.4853   0.5051   0.5688   2.5590   3.9417
     9.5437  10.5373  14.0620  14.3867

          k = 0.0939 0.1626 0.0294 (  1032 PWs)   bands (ev):

    -9.0905  -8.9124  -4.6241  -4.5023   0.5071   0.5622   2.6469   3.8288
     9.5848  10.4337  14.0870  14.3637

          k = 0.0939 0.1626 0.0441 (  1033 PWs)   bands (ev):

    -9.0647  -8.9357  -4.6079  -4.5194   0.5138   0.5519   2.7973   3.6539
     9.6594  10.2890  14.1244  14.3275

          k = 0.0939 0.1626 0.0588 (  1031 PWs)   bands (ev):

    -9.0349  -8.9663  -4.5871  -4.5398   0.5331   0.5442   2.9906   3.4343
     9.7829  10.1179  14.1743  14.2786

          k = 0.0939 0.1626-0.0735 (  1038 PWs)   bands (ev):

    -9.0018  -9.0018  -4.5645  -4.5645   0.5335   0.5335   3.2054   3.2054
     9.9349   9.9349  14.2246  14.2246

          k =-0.1173-0.2033 0.0000 (  1024 PWs)   bands (ev):

    -7.4317  -7.3289  -6.5599  -6.4821   0.2593   0.3443   3.9936   4.6565
     8.2162   8.9670  13.9148  14.2970

          k =-0.1173-0.2033 0.0147 (  1028 PWs)   bands (ev):

    -7.4288  -7.3310  -6.5592  -6.4856   0.2539   0.3431   4.0059   4.6436
     8.2123   8.9301  13.9220  14.2871

          k =-0.1173-0.2033 0.0294 (  1028 PWs)   bands (ev):

    -7.4184  -7.3364  -6.5541  -6.4931   0.2574   0.3399   4.0615   4.6158
     8.2075   8.8302  13.9466  14.2605

          k =-0.1173-0.2033 0.0441 (  1024 PWs)   bands (ev):

    -7.4032  -7.3430  -6.5486  -6.5033   0.2644   0.3137   4.1568   4.5729
     8.2305   8.6897  13.9902  14.2182

          k =-0.1173-0.2033 0.0588 (  1034 PWs)   bands (ev):

    -7.3891  -7.3539  -6.5431  -6.5158   0.2737   0.2875   4.2726   4.4910
     8.2809   8.5114  14.0402  14.1569

          k =-0.1173-0.2033-0.0735 (  1044 PWs)   bands (ev):

    -7.3747  -7.3747  -6.5326  -6.5326   0.2768   0.2768   4.3757   4.3757
     8.3728   8.3728  14.0988  14.0988

          k = 0.0704 0.0407 0.0000 (  1035 PWs)   bands (ev):

   -12.1019 -11.8341  -1.0281   0.8755   1.4608   1.4997   2.2914   2.3080
    11.3062  15.6424  15.7699  16.2063

          k = 0.0704 0.0407 0.0147 (  1037 PWs)   bands (ev):

   -12.0962 -11.8414  -0.9932   0.8132   1.4661   1.5025   2.2873   2.3088
    11.4258  15.6366  15.7640  16.2125

          k = 0.0704 0.0407 0.0294 (  1033 PWs)   bands (ev):

   -12.0790 -11.8573  -0.8747   0.6474   1.4693   1.4977   2.2945   2.3094
    11.7729  15.6242  15.7569  16.2323

          k = 0.0704 0.0407 0.0441 (  1030 PWs)   bands (ev):

   -12.0490 -11.8887  -0.6919   0.4099   1.4724   1.4874   2.2972   2.3073
    12.3195  15.4802  15.7376  15.8333

          k = 0.0704 0.0407 0.0588 (  1036 PWs)   bands (ev):

   -12.0125 -11.9300  -0.4572   0.1252   1.4768   1.4862   2.2910   2.2986
    13.0244  14.7147  15.7027  15.7180

          k = 0.0704 0.0407-0.0735 (  1040 PWs)   bands (ev):

   -11.9729 -11.9729  -0.1778  -0.1778   1.4825   1.4825   2.2944   2.2944
    13.8390  13.8391  15.7046  15.7047

          k = 0.0939 0.0813 0.0000 (  1030 PWs)   bands (ev):

   -11.1647 -10.9143  -0.7275  -0.6462   0.1185   1.0000   1.0655   1.9394
    12.4832  13.6871  14.2344  15.6552

          k = 0.0939 0.0813 0.0147 (  1030 PWs)   bands (ev):

   -11.1604 -10.9215  -0.7233  -0.6443   0.1528   0.9978   1.0659   1.8827
    12.5938  13.7052  14.2198  15.6603

          k = 0.0939 0.0813 0.0294 (  1026 PWs)   bands (ev):

   -11.1422 -10.9401  -0.7224  -0.6499   0.2618   1.0076   1.0621   1.7311
    12.9148  13.7600  14.1765  15.6746

          k = 0.0939 0.0813 0.0441 (  1032 PWs)   bands (ev):

   -11.1163 -10.9699  -0.7091  -0.6624   0.4390   1.0113   1.0429   1.4958
    13.3934  13.8456  14.1034  15.6795

          k = 0.0939 0.0813 0.0588 (  1027 PWs)   bands (ev):

   -11.0809 -11.0049  -0.6962  -0.6698   0.6733   1.0169   1.0372   1.2261
    13.7873  14.0216  14.1979  15.5437

          k = 0.0939 0.0813-0.0735 (  1026 PWs)   bands (ev):

   -11.0428 -11.0428  -0.6822  -0.6822   0.9414   0.9414   1.0281   1.0281
    13.9239  13.9240  14.8969  14.8971

          k = 0.1173 0.1220 0.0000 (  1028 PWs)   bands (ev):

    -9.7869  -9.5548  -3.2676  -3.1415   0.0657   0.1294   1.7708   3.4038
    10.8141  11.6728  14.2216  15.2513

          k = 0.1173 0.1220 0.0147 (  1025 PWs)   bands (ev):

    -9.7807  -9.5611  -3.2643  -3.1441   0.0675   0.1286   1.8086   3.3612
    10.8307  11.6500  14.3266  15.2624

          k = 0.1173 0.1220 0.0294 (  1027 PWs)   bands (ev):

    -9.7660  -9.5793  -3.2563  -3.1452   0.0726   0.1190   1.9050   3.2301
    10.8782  11.5753  14.6247  15.2863

          k = 0.1173 0.1220 0.0441 (  1029 PWs)   bands (ev):

    -9.7417  -9.6063  -3.2426  -3.1623   0.0777   0.1099   2.0697   3.0239
    10.9510  11.4657  15.0573  15.3254

          k = 0.1173 0.1220 0.0588 (  1030 PWs)   bands (ev):

    -9.7099  -9.6399  -3.2257  -3.1845   0.0836   0.1119   2.2778   2.7803
    11.0587  11.3271  15.3373  15.3957

          k = 0.1173 0.1220-0.0735 (  1036 PWs)   bands (ev):

    -9.6751  -9.6751  -3.2077  -3.2077   0.0931   0.0931   2.5203   2.5203
    11.1808  11.1808  15.3897  15.3898

          k = 0.1408 0.1626 0.0000 (  1028 PWs)   bands (ev):

    -8.0240  -7.8245  -5.6713  -5.5138  -0.4217  -0.3526   3.6712   4.7538
     8.5233   9.3692  14.9771  15.3795

          k = 0.1408 0.1626 0.0147 (  1026 PWs)   bands (ev):

    -8.0177  -7.8289  -5.6672  -5.5170  -0.4205  -0.3541   3.7008   4.7341
     8.5278   9.3363  14.9867  15.3703

          k = 0.1408 0.1626 0.0294 (  1026 PWs)   bands (ev):

    -8.0038  -7.8431  -5.6566  -5.5311  -0.4071  -0.3573   3.7725   4.6610
     8.5513   9.2455  15.0146  15.3384

          k = 0.1408 0.1626 0.0441 (  1024 PWs)   bands (ev):

    -7.9809  -7.8654  -5.6352  -5.5476  -0.4032  -0.3647   3.8946   4.5477
     8.5999   9.1163  15.0523  15.2922

          k = 0.1408 0.1626 0.0588 (  1025 PWs)   bands (ev):

    -7.9540  -7.8933  -5.6144  -5.5688  -0.3974  -0.3747   4.0483   4.3962
     8.6850   8.9608  15.1075  15.2326

          k = 0.1408 0.1626-0.0735 (  1026 PWs)   bands (ev):

    -7.9255  -7.9255  -5.5913  -5.5913  -0.3846  -0.3846   4.2233   4.2233
     8.8093   8.8093  15.1683  15.1683

          k = 0.1408 0.0813 0.0000 (  1035 PWs)   bands (ev):

   -10.0166  -9.7821  -2.1660  -2.1131  -0.7983  -0.7615   1.5116   3.2034
    11.5587  12.0845  13.9412  17.4460

          k = 0.1408 0.0813 0.0147 (  1033 PWs)   bands (ev):

   -10.0124  -9.7879  -2.1666  -2.1080  -0.7981  -0.7610   1.5477   3.1470
    11.5772  12.0771  14.0429  17.4430

          k = 0.1408 0.0813 0.0294 (  1030 PWs)   bands (ev):

    -9.9950  -9.8057  -2.1621  -2.1117  -0.7947  -0.7635   1.6499   3.0123
    11.6225  12.0411  14.3368  17.4109

          k = 0.1408 0.0813 0.0441 (  1031 PWs)   bands (ev):

    -9.9668  -9.8339  -2.1582  -2.1208  -0.7954  -0.7640   1.8136   2.8031
    11.6778  11.9795  14.7924  17.1906

          k = 0.1408 0.0813 0.0588 (  1037 PWs)   bands (ev):

    -9.9388  -9.8685  -2.1518  -2.1332  -0.7845  -0.7720   2.0305   2.5454
    11.7434  11.9059  15.3628  16.6527

          k = 0.1408 0.0813-0.0735 (  1028 PWs)   bands (ev):

    -9.9025  -9.9025  -2.1395  -2.1395  -0.7741  -0.7741   2.2859   2.2859
    11.8322  11.8322  16.0076  16.0077

          k = 0.1643 0.1220 0.0000 (  1020 PWs)   bands (ev):

    -8.4457  -8.2406  -4.1936  -4.0694  -1.8949  -1.8074   3.3425   4.7631
     9.2280   9.9069  15.9211  17.4688

          k = 0.1643 0.1220 0.0147 (  1023 PWs)   bands (ev):

    -8.4430  -8.2461  -4.1929  -4.0732  -1.8916  -1.8095   3.3698   4.7161
     9.2444   9.8861  15.9868  17.4672

          k = 0.1643 0.1220 0.0294 (  1025 PWs)   bands (ev):

    -8.4314  -8.2621  -4.1839  -4.0759  -1.8883  -1.8157   3.4561   4.5983
     9.2854   9.8368  16.1692  17.4483

          k = 0.1643 0.1220 0.0441 (  1027 PWs)   bands (ev):

    -8.4099  -8.2863  -4.1714  -4.0944  -1.8766  -1.8258   3.6009   4.4287
     9.3507   9.7465  16.4282  17.3859

          k = 0.1643 0.1220 0.0588 (  1026 PWs)   bands (ev):

    -8.3814  -8.3159  -4.1550  -4.1116  -1.8635  -1.8383   3.7895   4.2225
     9.4436   9.6470  16.7169  17.2311

          k = 0.1643 0.1220-0.0735 (  1026 PWs)   bands (ev):

    -8.3498  -8.3498  -4.1300  -4.1300  -1.8571  -1.8571   4.0034   4.0034
     9.5481   9.5481  16.9941  16.9944

          k = 0.1878 0.1626 0.0000 (  1020 PWs)   bands (ev):

    -6.8292  -6.7305  -5.9661  -5.8930  -2.1916  -2.1081   4.8670   5.5087
     8.1020   8.3128  17.3253  17.9862

          k = 0.1878 0.1626 0.0147 (  1016 PWs)   bands (ev):

    -6.8255  -6.7311  -5.9649  -5.8948  -2.1906  -2.1004   4.8923   5.5079
     8.1047   8.2924  17.3206  17.8675

          k = 0.1878 0.1626 0.0294 (  1022 PWs)   bands (ev):

    -6.8179  -6.7394  -5.9599  -5.9045  -2.1901  -2.1085   4.9416   5.4785
     8.0721   8.2505  17.2946  17.5447

          k = 0.1878 0.1626 0.0441 (  1023 PWs)   bands (ev):

    -6.8053  -6.7488  -5.9546  -5.9144  -2.1803  -2.1198   5.0291   5.4290
     8.0448   8.1870  17.2477  17.3166

          k = 0.1878 0.1626 0.0588 (  1012 PWs)   bands (ev):

    -6.7885  -6.7585  -5.9454  -5.9243  -2.1597  -2.1314   5.1482   5.3616
     8.0518   8.1288  17.1913  17.1944

          k = 0.1878 0.1626-0.0735 (  1006 PWs)   bands (ev):

    -6.7724  -6.7724  -5.9344  -5.9344  -2.1423  -2.1423   5.2634   5.2634
     8.0793   8.0793  17.1617  17.1620

          k = 0.2112 0.1220 0.0000 (  1019 PWs)   bands (ev):

    -6.7815  -6.6109  -5.0556  -4.9683  -3.5778  -3.5297   5.2214   6.2541
     7.5313   8.1698  17.6142  17.6924

          k = 0.2112 0.1220 0.0147 (  1021 PWs)   bands (ev):

    -6.7762  -6.6159  -5.0524  -4.9698  -3.5771  -3.5313   5.2466   6.2243
     7.5406   8.1473  17.3846  17.4907

          k = 0.2112 0.1220 0.0294 (  1009 PWs)   bands (ev):

    -6.7638  -6.6286  -5.0375  -4.9695  -3.5667  -3.5299   5.3229   6.1571
     7.5933   8.1026  17.0522  17.2288

          k = 0.2112 0.1220 0.0441 (  1014 PWs)   bands (ev):

    -6.7482  -6.6477  -5.0258  -4.9774  -3.5647  -3.5337   5.4307   6.0384
     7.6538   8.0223  16.8103  16.9645

          k = 0.2112 0.1220 0.0588 (  1014 PWs)   bands (ev):

    -6.7239  -6.6716  -5.0149  -4.9901  -3.5587  -3.5403   5.5761   5.8978
     7.7359   7.9246  16.6796  16.7663

          k = 0.2112 0.1220-0.0735 (  1014 PWs)   bands (ev):

    -6.6983  -6.6983  -5.0022  -5.0022  -3.5488  -3.5488   5.7353   5.7353
     7.8299   7.8299  16.6660  16.6660

     the Fermi energy is     6.4238 ev

!    total energy              =     -45.38128822 Ry
     Harris-Foulkes estimate   =     -45.38128823 Ry
     estimated scf accuracy    <          2.4E-09 Ry

     The total energy is the sum of the following terms:

     one-electron contribution =     -11.91405012 Ry
     hartree contribution      =      13.61771898 Ry
     xc contribution           =     -13.86113652 Ry
     ewald contribution        =     -33.22401558 Ry
     smearing contrib. (-TS)   =       0.00019501 Ry

     convergence has been achieved in   7 iterations

     Writing output data file ./gh.save/

     init_run     :      0.11s CPU      0.13s WALL (       1 calls)
     electrons    :      4.20s CPU      5.10s WALL (       1 calls)

     Called by init_run:
     wfcinit      :      0.10s CPU      0.12s WALL (       1 calls)
     potinit      :      0.00s CPU      0.00s WALL (       1 calls)
     hinit0       :      0.00s CPU      0.01s WALL (       1 calls)

     Called by electrons:
     c_bands      :      3.91s CPU      4.76s WALL (       7 calls)
     sum_band     :      0.28s CPU      0.32s WALL (       7 calls)
     v_of_rho     :      0.00s CPU      0.00s WALL (       8 calls)
     mix_rho      :      0.00s CPU      0.00s WALL (       7 calls)

     Called by c_bands:
     init_us_2    :      0.01s CPU      0.01s WALL (    1260 calls)
     ccgdiagg     :      3.40s CPU      4.15s WALL (     588 calls)
     wfcrot       :      0.58s CPU      0.68s WALL (     588 calls)

     Called by sum_band:

     Called by *cgdiagg:
     h_psi        :      2.89s CPU      3.51s WALL (   27347 calls)
     cdiaghg      :      0.03s CPU      0.03s WALL (     588 calls)

     Called by h_psi:
     h_psi:calbec :      0.26s CPU      0.32s WALL (   27347 calls)
     vloc_psi     :      2.43s CPU      2.94s WALL (   27347 calls)
     add_vuspsi   :      0.06s CPU      0.08s WALL (   27347 calls)
     hs_1psi      :      2.58s CPU      3.15s WALL (   26759 calls)
     s_1psi       :      0.29s CPU      0.36s WALL (   26759 calls)

     General routines
     calbec       :      0.33s CPU      0.41s WALL (   54106 calls)
     fft          :      0.00s CPU      0.01s WALL (      23 calls)
     ffts         :      0.00s CPU      0.00s WALL (       7 calls)
     fftw         :      2.46s CPU      2.96s WALL (   74686 calls)

     Parallel routines
     fft_scatt_xy :      0.22s CPU      0.26s WALL (   74716 calls)
     fft_scatt_yz :      1.37s CPU      1.65s WALL (   74716 calls)

     PWSCF        :      4.40s CPU      6.55s WALL


   This run was terminated on:  16:20:54  29Oct2020            

=------------------------------------------------------------------------------=
   JOB DONE.
=------------------------------------------------------------------------------=
