 written on 26Oct2020 at 15:32:52 
  -1.61399000000000       0.000000000000000E+000   1.61399000000000     
  0.000000000000000E+000   1.61399000000000        1.61399000000000     
  -1.61399000000000        1.61399000000000       0.000000000000000E+000
           4
          93
    4    6    2    2    2    1    2    2    1    1    2    6    2    2    2
    6    2    2    4    1    1    1    4    1    1    1    1    2    1    1
    1    2    2    1    1    2    4    2    1    2    1    1    1    1    2
    1    1    1    2    1    1    1    1    2    1    2    4    2    1    1
    2    2    1    1    1    2    1    1    1    1    4    1    1    1    4
    2    2    6    2    2    2    6    2    1    1    2    2    1    2    2
    2    6    4

   -3    1    1
    1    1    0.73784761E-02 -0.49929669E-09
    2    1   -0.85402675E-02  0.12709559E-08
    3    1   -0.85402695E-02  0.93771123E-09
    4    1   -0.85402707E-02  0.12263688E-08
    1    2   -0.85402715E-02 -0.33803444E-09
    2    2    0.73784758E-02  0.18091176E-09
    3    2   -0.85402687E-02  0.31269723E-09
    4    2   -0.85402687E-02 -0.92154234E-09
    1    3   -0.85402694E-02 -0.53174936E-09
    2    3   -0.85402722E-02  0.71506703E-10
    3    3    0.73784754E-02 -0.38338679E-09
    4    3   -0.85402680E-02 -0.46480626E-09
    1    4   -0.85402680E-02 -0.63100600E-09
    2    4   -0.85402707E-02 -0.79178712E-09
    3    4   -0.85402717E-02  0.10212954E-09
    4    4    0.73784759E-02  0.70174891E-09

   -2   -2    2
    1    1    0.11647286E-01  0.40116930E-16
    2    1   -0.35022555E-02  0.26835396E-09
    3    1   -0.35022550E-02 -0.13625372E-08
    4    1   -0.35022547E-02  0.14396461E-09
    1    2   -0.35022555E-02 -0.26835395E-09
    2    2    0.11647286E-01  0.13272815E-16
    3    2   -0.35022549E-02  0.59180080E-09
    4    2   -0.35022548E-02  0.85765628E-09
    1    3   -0.35022550E-02  0.13625372E-08
    2    3   -0.35022549E-02 -0.59180082E-09
    3    3    0.11647286E-01 -0.31304888E-16
    4    3   -0.35022557E-02 -0.12585162E-09
    1    4   -0.35022547E-02 -0.14396460E-09
    2    4   -0.35022548E-02 -0.85765629E-09
    3    4   -0.35022557E-02  0.12585165E-09
    4    4    0.11647286E-01  0.11887016E-16

   -2   -1    1
    1    1    0.15749602E-01 -0.21349127E-09
    2    1   -0.19882999E-02 -0.14334499E-09
    3    1   -0.79546425E-02 -0.29873936E-09
    4    1    0.15396627E-02  0.28458016E-09
    1    2   -0.79546433E-02  0.12702719E-08
    2    2    0.12409573E-01 -0.90928479E-10
    3    2   -0.35022557E-02 -0.62971455E-10
    4    2   -0.79546416E-02  0.21021327E-09
    1    3   -0.19883000E-02  0.43921299E-09
    2    3   -0.40231924E-02 -0.23227904E-09
    3    3    0.12409574E-01  0.37393133E-09
    4    3   -0.19882998E-02  0.11556189E-08
    1    4    0.15396626E-02 -0.95232218E-09
    2    4   -0.19883010E-02 -0.14701969E-08
    3    4   -0.79546416E-02 -0.69079080E-10
    4    4    0.15749602E-01 -0.69507028E-10

   -2   -1    2
    1    1    0.12409574E-01  0.17578124E-09
    2    1   -0.79546402E-02 -0.58077855E-10
    3    1   -0.35022549E-02 -0.49291810E-09
    4    1   -0.79546419E-02 -0.55513105E-09
    1    2   -0.19883009E-02 -0.49279534E-09
    2    2    0.15749602E-01 -0.39491641E-09
    3    2   -0.79546430E-02  0.35313905E-10
    4    2    0.15396640E-02  0.69179740E-09
    1    3   -0.40231937E-02 -0.45471452E-09
    2    3   -0.19883000E-02  0.68094155E-10
    3    3    0.12409574E-01  0.25737484E-09
    4    3   -0.19882989E-02  0.10837868E-08
    1    4   -0.19882993E-02 -0.21162955E-08
    2    4    0.15396617E-02 -0.43059213E-09
    3    4   -0.79546416E-02 -0.48949733E-09
    4    4    0.15749601E-01 -0.38258813E-10

   -2    0    0
    1    1    0.17684995E+00  0.62023565E-15
    2    1   -0.21538155E-01 -0.19284255E-08
    3    1   -0.21538154E-01 -0.38282052E-09
    4    1   -0.25466096E+00  0.35923352E-09
    1    2   -0.21538155E-01  0.19284252E-08
    2    2   -0.17298477E-01  0.45756531E-15
    3    2   -0.40231922E-02  0.17300390E-09
    4    2   -0.21538152E-01 -0.13708794E-08
    1    3   -0.21538154E-01  0.38282024E-09
    2    3   -0.40231922E-02 -0.17300418E-09
    3    3   -0.17298477E-01  0.53392713E-15
    4    3   -0.21538151E-01 -0.97291536E-10
    1    4   -0.25466096E+00 -0.35923397E-09
    2    4   -0.21538152E-01  0.13708791E-08
    3    4   -0.21538151E-01  0.97291223E-10
    4    4    0.17684995E+00  0.58091977E-15

   -2    0    1
    1    1   -0.12934225E-01 -0.46141625E-09
    2    1   -0.21538151E-01  0.10541160E-08
    3    1   -0.19883000E-02 -0.90456218E-09
    4    1    0.13490015E-01 -0.44133489E-09
    1    2   -0.21538154E-01  0.33317484E-09
    2    2   -0.12934225E-01 -0.11236568E-08
    3    2   -0.19883005E-02 -0.82103006E-09
    4    2    0.13490018E-01 -0.38079630E-09
    1    3    0.30209093E-01 -0.13881447E-09
    2    3    0.30209093E-01  0.76978247E-09
    3    3    0.31513806E-02  0.39398471E-09
    4    3   -0.85402682E-02 -0.48245963E-10
    1    4    0.10031798E+00 -0.11632368E-08
    2    4    0.10031798E+00 -0.20798330E-08
    3    4   -0.38176756E-01  0.62213558E-09
    4    4   -0.88751567E-04  0.11910804E-08

   -2    0    2
    1    1   -0.17298477E-01  0.17889336E-16
    2    1   -0.21538151E-01  0.62224582E-09
    3    1   -0.40231914E-02  0.14416360E-08
    4    1   -0.21538153E-01  0.23163695E-09
    1    2   -0.21538151E-01 -0.62224582E-09
    2    2    0.17684995E+00  0.75050494E-17
    3    2   -0.21538155E-01  0.41948245E-09
    4    2   -0.25466097E+00 -0.91631627E-09
    1    3   -0.40231914E-02 -0.14416360E-08
    2    3   -0.21538155E-01 -0.41948244E-09
    3    3   -0.17298477E-01 -0.14772255E-16
    4    3   -0.21538150E-01  0.10720257E-08
    1    4   -0.21538153E-01 -0.23163686E-09
    2    4   -0.25466097E+00  0.91631633E-09
    3    4   -0.21538150E-01 -0.10720256E-08
    4    4    0.17684995E+00  0.34929324E-17

   -2    1   -1
    1    1    0.15749602E-01  0.21349136E-09
    2    1   -0.79546433E-02 -0.12702720E-08
    3    1   -0.19883000E-02 -0.43921304E-09
    4    1    0.15396626E-02  0.95232218E-09
    1    2   -0.19882999E-02  0.14334491E-09
    2    2    0.12409573E-01  0.90928606E-10
    3    2   -0.40231924E-02  0.23227887E-09
    4    2   -0.19883010E-02  0.14701968E-08
    1    3   -0.79546425E-02  0.29873937E-09
    2    3   -0.35022557E-02  0.62971367E-10
    3    3    0.12409574E-01 -0.37393135E-09
    4    3   -0.79546416E-02  0.69079082E-10
    1    4    0.15396627E-02 -0.28458015E-09
    2    4   -0.79546416E-02 -0.21021325E-09
    3    4   -0.19882998E-02 -0.11556190E-08
    4    4    0.15749602E-01  0.69507022E-10

   -2    1    0
    1    1   -0.12934224E-01 -0.54702021E-10
    2    1   -0.19882996E-02 -0.54038379E-09
    3    1   -0.21538152E-01  0.58649377E-09
    4    1    0.13490016E-01 -0.52520578E-09
    1    2    0.30209090E-01  0.65776385E-09
    2    2    0.31513796E-02 -0.33386655E-09
    3    2    0.30209096E-01  0.23947466E-09
    4    2   -0.85402697E-02 -0.10699148E-08
    1    3   -0.21538153E-01  0.69428168E-09
    2    3   -0.19883014E-02 -0.63626300E-09
    3    3   -0.12934226E-01  0.60679931E-09
    4    3    0.13490017E-01  0.43119616E-09
    1    4    0.10031798E+00 -0.21505239E-08
    2    4   -0.38176756E-01  0.10968541E-08
    3    4    0.10031798E+00 -0.21401380E-08
    4    4   -0.88751260E-04 -0.21828780E-09

   -2    1    1
    1    1    0.31513795E-02 -0.10985017E-09
    2    1    0.30209096E-01  0.34054549E-09
    3    1    0.30209094E-01  0.14624238E-08
    4    1   -0.85402731E-02 -0.46842072E-10
    1    2   -0.19882993E-02 -0.43893732E-09
    2    2   -0.12934225E-01 -0.58220922E-09
    3    2   -0.21538151E-01 -0.20109362E-10
    4    2    0.13490017E-01 -0.45727128E-09
    1    3   -0.19882993E-02 -0.47059724E-09
    2    3   -0.21538154E-01  0.82549507E-09
    3    3   -0.12934225E-01 -0.21408665E-09
    4    3    0.13490017E-01 -0.73095037E-09
    1    4   -0.38176759E-01  0.21347079E-08
    2    4    0.10031798E+00 -0.21446441E-08
    3    4    0.10031798E+00 -0.86095903E-09
    4    4   -0.88750920E-04  0.90617563E-09

   -2    1    2
    1    1    0.12409574E-01 -0.17578121E-09
    2    1   -0.19883009E-02  0.49279533E-09
    3    1   -0.40231937E-02  0.45471452E-09
    4    1   -0.19882993E-02  0.21162955E-08
    1    2   -0.79546402E-02  0.58077855E-10
    2    2    0.15749602E-01  0.39491646E-09
    3    2   -0.19883000E-02 -0.68094072E-10
    4    2    0.15396617E-02  0.43059210E-09
    1    3   -0.35022549E-02  0.49291812E-09
    2    3   -0.79546430E-02 -0.35313932E-10
    3    3    0.12409574E-01 -0.25737487E-09
    4    3   -0.79546416E-02  0.48949739E-09
    1    4   -0.79546419E-02  0.55513107E-09
    2    4    0.15396640E-02 -0.69179741E-09
    3    4   -0.19882989E-02 -0.10837869E-08
    4    4    0.15749601E-01  0.38258757E-10

   -2    2   -2
    1    1    0.11647286E-01  0.40116930E-16
    2    1   -0.35022555E-02  0.26835396E-09
    3    1   -0.35022550E-02 -0.13625372E-08
    4    1   -0.35022547E-02  0.14396460E-09
    1    2   -0.35022555E-02 -0.26835397E-09
    2    2    0.11647286E-01 -0.11321581E-16
    3    2   -0.35022549E-02  0.59180080E-09
    4    2   -0.35022548E-02  0.85765629E-09
    1    3   -0.35022550E-02  0.13625372E-08
    2    3   -0.35022549E-02 -0.59180084E-09
    3    3    0.11647286E-01 -0.67104923E-17
    4    3   -0.35022557E-02 -0.12585164E-09
    1    4   -0.35022547E-02 -0.14396460E-09
    2    4   -0.35022548E-02 -0.85765628E-09
    3    4   -0.35022557E-02  0.12585162E-09
    4    4    0.11647286E-01  0.11887016E-16

   -2    2   -1
    1    1    0.12409573E-01  0.76018816E-10
    2    1   -0.35022547E-02 -0.49699357E-09
    3    1   -0.79546408E-02 -0.46558737E-09
    4    1   -0.79546424E-02 -0.14082460E-08
    1    2   -0.40231932E-02 -0.46331376E-09
    2    2    0.12409574E-01 -0.18727198E-09
    3    2   -0.19883003E-02 -0.34457857E-09
    4    2   -0.19882985E-02  0.51172781E-09
    1    3   -0.19883014E-02  0.66243913E-09
    2    3   -0.79546403E-02 -0.29124483E-09
    3    3    0.15749601E-01 -0.19901347E-09
    4    3    0.15396617E-02 -0.52672229E-09
    1    4   -0.19882993E-02 -0.10834569E-08
    2    4   -0.79546410E-02  0.49098321E-09
    3    4    0.15396625E-02 -0.34686629E-09
    4    4    0.15749602E-01  0.31028333E-09

   -2    2    0
    1    1   -0.17298477E-01  0.22497193E-17
    2    1   -0.40231916E-02  0.14561246E-09
    3    1   -0.21538150E-01  0.42112607E-09
    4    1   -0.21538154E-01 -0.10144962E-08
    1    2   -0.40231916E-02 -0.14561247E-09
    2    2   -0.17298477E-01 -0.27220357E-16
    3    2   -0.21538151E-01  0.11684046E-08
    4    2   -0.21538151E-01 -0.13505018E-08
    1    3   -0.21538150E-01 -0.42112609E-09
    2    3   -0.21538151E-01 -0.11684046E-08
    3    3    0.17684995E+00 -0.29662862E-16
    4    3   -0.25466096E+00 -0.13133328E-08
    1    4   -0.21538154E-01  0.10144962E-08
    2    4   -0.21538151E-01  0.13505018E-08
    3    4   -0.25466096E+00  0.13133329E-08
    4    4    0.17684995E+00  0.11624449E-16

   -2    2    1
    1    1    0.12409573E-01 -0.76018761E-10
    2    1   -0.40231932E-02  0.46331376E-09
    3    1   -0.19883014E-02 -0.66243912E-09
    4    1   -0.19882993E-02  0.10834569E-08
    1    2   -0.35022547E-02  0.49699358E-09
    2    2    0.12409574E-01  0.18727203E-09
    3    2   -0.79546403E-02  0.29124485E-09
    4    2   -0.79546410E-02 -0.49098318E-09
    1    3   -0.79546408E-02  0.46558735E-09
    2    3   -0.19883003E-02  0.34457863E-09
    3    3    0.15749601E-01  0.19901342E-09
    4    3    0.15396625E-02  0.34686631E-09
    1    4   -0.79546424E-02  0.14082460E-08
    2    4   -0.19882985E-02 -0.51172787E-09
    3    4    0.15396617E-02  0.52672230E-09
    4    4    0.15749602E-01 -0.31028335E-09

   -2    2    2
    1    1    0.11647286E-01  0.43475057E-16
    2    1   -0.35022555E-02  0.26835395E-09
    3    1   -0.35022550E-02 -0.13625372E-08
    4    1   -0.35022547E-02  0.14396460E-09
    1    2   -0.35022555E-02 -0.26835397E-09
    2    2    0.11647286E-01 -0.79634539E-17
    3    2   -0.35022549E-02  0.59180081E-09
    4    2   -0.35022548E-02  0.85765630E-09
    1    3   -0.35022550E-02  0.13625372E-08
    2    3   -0.35022549E-02 -0.59180081E-09
    3    3    0.11647286E-01 -0.27946761E-16
    4    3   -0.35022557E-02 -0.12585162E-09
    1    4   -0.35022547E-02 -0.14396460E-09
    2    4   -0.35022548E-02 -0.85765628E-09
    3    4   -0.35022557E-02  0.12585166E-09
    4    4    0.11647286E-01 -0.93492525E-17

   -1   -2    1
    1    1    0.15749602E-01 -0.54420648E-09
    2    1   -0.19883013E-02  0.48888864E-09
    3    1    0.15396610E-02  0.14179127E-09
    4    1   -0.79546423E-02 -0.19880451E-10
    1    2   -0.79546425E-02  0.35765707E-09
    2    2    0.12409574E-01  0.39977287E-09
    3    2   -0.79546409E-02 -0.21547282E-10
    4    2   -0.35022546E-02  0.22367144E-10
    1    3    0.15396642E-02  0.12899572E-08
    2    3   -0.19882993E-02 -0.62464610E-09
    3    3    0.15749602E-01 -0.26848535E-09
    4    3   -0.79546423E-02  0.16738877E-09
    1    4   -0.19882986E-02 -0.13693135E-08
    2    4   -0.40231932E-02 -0.11790011E-09
    3    4   -0.19883011E-02  0.18635431E-08
    4    4    0.12409573E-01  0.41290593E-09

   -1   -2    2
    1    1    0.12409574E-01 -0.14400965E-09
    2    1   -0.79546413E-02  0.72491065E-09
    3    1   -0.79546427E-02 -0.11001158E-08
    4    1   -0.35022550E-02 -0.61913462E-09
    1    2   -0.19883017E-02  0.16714889E-08
    2    2    0.15749601E-01 -0.29435446E-09
    3    2    0.15396627E-02 -0.24034248E-09
    4    2   -0.79546420E-02  0.71943153E-09
    1    3   -0.19882998E-02  0.77810248E-09
    2    3    0.15396623E-02 -0.56730121E-09
    3    3    0.15749603E-01 -0.38773651E-10
    4    3   -0.79546431E-02  0.47644630E-09
    1    4   -0.40231920E-02 -0.67891905E-09
    2    4   -0.19883016E-02 -0.14822749E-08
    3    4   -0.19882984E-02 -0.15003930E-09
    4    4    0.12409574E-01  0.47715934E-09

   -1   -1   -1
    1    1    0.73784761E-02  0.49929681E-09
    2    1   -0.85402715E-02  0.33803442E-09
    3    1   -0.85402694E-02  0.53174937E-09
    4    1   -0.85402680E-02  0.63100599E-09
    1    2   -0.85402675E-02 -0.12709558E-08
    2    2    0.73784758E-02 -0.18091167E-09
    3    2   -0.85402722E-02 -0.71506731E-10
    4    2   -0.85402707E-02  0.79178716E-09
    1    3   -0.85402695E-02 -0.93771118E-09
    2    3   -0.85402687E-02 -0.31269723E-09
    3    3    0.73784754E-02  0.38338677E-09
    4    3   -0.85402717E-02 -0.10212955E-09
    1    4   -0.85402707E-02 -0.12263688E-08
    2    4   -0.85402687E-02  0.92154229E-09
    3    4   -0.85402680E-02  0.46480626E-09
    4    4    0.73784759E-02 -0.70174894E-09

   -1   -1    0
    1    1   -0.88751524E-04 -0.16857354E-09
    2    1   -0.85402738E-02 -0.18782093E-09
    3    1    0.13490014E-01  0.99345256E-09
    4    1    0.13490018E-01  0.10442779E-08
    1    2   -0.38176757E-01  0.89456231E-09
    2    2    0.31513797E-02  0.50399880E-09
    3    2   -0.19883008E-02  0.44891558E-09
    4    2   -0.19883000E-02 -0.96148467E-09
    1    3    0.10031798E+00  0.44591267E-09
    2    3    0.30209096E-01 -0.10729391E-08
    3    3   -0.12934225E-01 -0.57031019E-09
    4    3   -0.21538154E-01  0.17861820E-08
    1    4    0.10031797E+00 -0.15799554E-08
    2    4    0.30209093E-01  0.19273912E-08
    3    4   -0.21538150E-01  0.10927027E-08
    4    4   -0.12934225E-01  0.23490583E-09

   -1   -1    1
    1    1    0.15321719E-01 -0.74325192E-09
    2    1   -0.38176758E-01  0.52441033E-09
    3    1    0.15396607E-02  0.94935566E-10
    4    1    0.15396619E-02  0.10280285E-09
    1    2   -0.38176760E-01  0.18247990E-08
    2    2    0.15321719E-01  0.47526871E-10
    3    2    0.15396616E-02  0.12095897E-09
    4    2    0.15396634E-02 -0.58000392E-09
    1    3    0.32232674E-01  0.98238855E-09
    2    3    0.32232675E-01 -0.10563796E-08
    3    3    0.15321720E-01  0.42081613E-09
    4    3   -0.38176759E-01  0.15067366E-08
    1    4    0.32232675E-01 -0.24375986E-08
    2    4    0.32232672E-01 -0.29477779E-08
    3    4   -0.38176757E-01  0.13120878E-08
    4    4    0.15321719E-01  0.27483713E-09

   -1   -1    2
    1    1    0.31513798E-02 -0.26742526E-09
    2    1   -0.38176756E-01  0.10150724E-08
    3    1   -0.19882994E-02  0.10278564E-09
    4    1   -0.19882998E-02 -0.70430450E-09
    1    2   -0.85402686E-02 -0.26886613E-08
    2    2   -0.88751107E-04  0.75877452E-09
    3    2    0.13490015E-01 -0.99130980E-09
    4    2    0.13490016E-01  0.14466758E-08
    1    3    0.30209095E-01 -0.36508525E-09
    2    3    0.10031798E+00 -0.53255128E-09
    3    3   -0.12934226E-01  0.19304723E-09
    4    3   -0.21538154E-01  0.63041415E-09
    1    4    0.30209091E-01 -0.58089300E-09
    2    4    0.10031798E+00 -0.14725664E-09
    3    4   -0.21538151E-01 -0.14266291E-09
    4    4   -0.12934225E-01 -0.68438663E-09

   -1   -1    3
    1    1    0.73784761E-02  0.49929683E-09
    2    1   -0.85402715E-02  0.33803443E-09
    3    1   -0.85402694E-02  0.53174938E-09
    4    1   -0.85402680E-02  0.63100598E-09
    1    2   -0.85402675E-02 -0.12709558E-08
    2    2    0.73784758E-02 -0.18091176E-09
    3    2   -0.85402722E-02 -0.71506717E-10
    4    2   -0.85402707E-02  0.79178715E-09
    1    3   -0.85402695E-02 -0.93771124E-09
    2    3   -0.85402687E-02 -0.31269731E-09
    3    3    0.73784754E-02  0.38338674E-09
    4    3   -0.85402717E-02 -0.10212954E-09
    1    4   -0.85402707E-02 -0.12263688E-08
    2    4   -0.85402687E-02  0.92154227E-09
    3    4   -0.85402680E-02  0.46480628E-09
    4    4    0.73784759E-02 -0.70174902E-09

   -1    0   -1
    1    1   -0.88750798E-04  0.12329318E-08
    2    1    0.13490014E-01 -0.91047585E-09
    3    1   -0.85402715E-02  0.35240836E-09
    4    1    0.13490018E-01  0.78163893E-09
    1    2    0.10031798E+00  0.10794239E-09
    2    2   -0.12934225E-01 -0.39689414E-09
    3    2    0.30209091E-01 -0.28460735E-09
    4    2   -0.21538152E-01  0.99341761E-09
    1    3   -0.38176759E-01  0.20388415E-09
    2    3   -0.19883000E-02  0.11397219E-08
    3    3    0.31513799E-02 -0.75503706E-09
    4    3   -0.19883005E-02  0.11588933E-09
    1    4    0.10031798E+00 -0.25278431E-09
    2    4   -0.21538151E-01  0.21060466E-09
    3    4    0.30209095E-01  0.26975330E-09
    4    4   -0.12934225E-01 -0.80985543E-10

   -1    0    0
    1    1    0.90072608E+00 -0.15676752E-10
    2    1    0.10031798E+00 -0.25380314E-08
    3    1    0.10031798E+00 -0.13828786E-08
    4    1   -0.25466097E+00 -0.57632513E-09
    1    2   -0.61523842E+00  0.35340842E-08
    2    2   -0.24443525E+00 -0.16310434E-08
    3    2    0.32232675E-01  0.13290435E-08
    4    2    0.10031798E+00 -0.14122106E-08
    1    3   -0.61523841E+00 -0.50965284E-09
    2    3    0.32232676E-01 -0.12222695E-08
    3    3   -0.24443525E+00  0.56322888E-09
    4    3    0.10031798E+00  0.17988086E-08
    1    4   -0.20896483E+01 -0.36387153E-08
    2    4   -0.61523841E+00  0.21096633E-08
    3    4   -0.61523840E+00  0.16873013E-08
    4    4    0.90072608E+00  0.10835245E-08

   -1    0    1
    1    1   -0.24443525E+00  0.42009427E-09
    2    1   -0.61523840E+00  0.20848682E-09
    3    1    0.32232673E-01 -0.12526089E-08
    4    1    0.10031797E+00  0.47461604E-10
    1    2    0.10031798E+00 -0.63668871E-09
    2    2    0.90072608E+00 -0.41017514E-09
    3    2    0.10031797E+00  0.90734011E-09
    4    2   -0.25466097E+00 -0.18276651E-08
    1    3    0.32232674E-01 -0.15324231E-08
    2    3   -0.61523841E+00  0.33521560E-08
    3    3   -0.24443525E+00  0.97463159E-09
    4    3    0.10031798E+00 -0.57574496E-09
    1    4   -0.61523841E+00 -0.15767836E-08
    2    4   -0.20896483E+01 -0.35671275E-08
    3    4   -0.61523840E+00 -0.97897845E-09
    4    4    0.90072608E+00 -0.98457431E-09

   -1    0    2
    1    1   -0.12934225E-01  0.74131691E-09
    2    1    0.10031797E+00  0.12661383E-08
    3    1    0.30209093E-01 -0.73887215E-09
    4    1   -0.21538151E-01  0.19307724E-08
    1    2    0.13490018E-01 -0.11682742E-08
    2    2   -0.88752288E-04 -0.77361062E-10
    3    2   -0.85402719E-02 -0.16314534E-09
    4    2    0.13490015E-01  0.21576124E-08
    1    3   -0.19882991E-02 -0.14089419E-08
    2    3   -0.38176759E-01  0.13281239E-08
    3    3    0.31513806E-02  0.20500510E-09
    4    3   -0.19883003E-02 -0.14973815E-08
    1    4   -0.21538153E-01 -0.44775963E-09
    2    4    0.10031798E+00  0.76297509E-09
    3    4    0.30209096E-01 -0.62733604E-09
    4    4   -0.12934225E-01 -0.86899429E-09

   -1    1   -2
    1    1    0.15749601E-01 -0.39096134E-09
    2    1    0.15396611E-02  0.14130008E-08
    3    1   -0.19883011E-02  0.14597524E-08
    4    1   -0.79546418E-02  0.47662511E-09
    1    2    0.15396632E-02 -0.59713551E-09
    2    2    0.15749602E-01 -0.13761891E-09
    3    2   -0.19882992E-02 -0.11395473E-08
    4    2   -0.79546423E-02  0.80525886E-09
    1    3   -0.79546413E-02  0.13613638E-08
    2    3   -0.79546425E-02  0.12083693E-09
    3    3    0.12409574E-01 -0.20923194E-09
    4    3   -0.35022553E-02 -0.21865174E-09
    1    4   -0.19882995E-02 -0.86475541E-09
    2    4   -0.19883004E-02  0.12401075E-08
    3    4   -0.40231922E-02  0.55677056E-11
    4    4    0.12409574E-01  0.73780358E-09

   -1    1   -1
    1    1    0.15321719E-01  0.63707101E-09
    2    1    0.15396623E-02  0.58744632E-09
    3    1   -0.38176759E-01  0.76586601E-09
    4    1    0.15396630E-02 -0.14934028E-09
    1    2    0.32232672E-01  0.19189163E-08
    2    2    0.15321719E-01 -0.10611233E-08
    3    2    0.32232675E-01 -0.22812607E-09
    4    2   -0.38176759E-01  0.72723018E-09
    1    3   -0.38176756E-01  0.85025310E-09
    2    3    0.15396610E-02 -0.13565594E-09
    3    3    0.15321720E-01 -0.62453098E-11
    4    3    0.15396609E-02  0.60248444E-09
    1    4    0.32232673E-01 -0.33038121E-08
    2    4   -0.38176759E-01  0.49980858E-09
    3    4    0.32232675E-01 -0.22792308E-08
    4    4    0.15321719E-01  0.43035356E-09

   -1    1    0
    1    1   -0.24443525E+00 -0.10498002E-09
    2    1    0.32232674E-01 -0.22910396E-08
    3    1   -0.61523840E+00  0.10981207E-08
    4    1    0.10031797E+00  0.11363373E-08
    1    2    0.32232675E-01 -0.22498362E-08
    2    2   -0.24443525E+00  0.51526400E-09
    3    2   -0.61523840E+00  0.21240792E-08
    4    2    0.10031798E+00 -0.13879026E-08
    1    3    0.10031798E+00 -0.49641448E-09
    2    3    0.10031798E+00 -0.16496007E-09
    3    3    0.90072608E+00  0.13593142E-10
    4    3   -0.25466097E+00 -0.21486539E-08
    1    4   -0.61523841E+00 -0.19523991E-08
    2    4   -0.61523841E+00  0.38999242E-08
    3    4   -0.20896483E+01 -0.24415146E-08
    4    4    0.90072608E+00 -0.42388365E-09

   -1    1    1
    1    1    0.15321720E-01 -0.10170686E-08
    2    1    0.32232674E-01  0.11258366E-08
    3    1    0.32232674E-01  0.92880344E-09
    4    1   -0.38176756E-01  0.70457012E-09
    1    2    0.15396628E-02 -0.13170648E-08
    2    2    0.15321719E-01  0.14954896E-09
    3    2   -0.38176758E-01 -0.24341949E-09
    4    2    0.15396612E-02  0.67403165E-09
    1    3    0.15396645E-02 -0.10641941E-08
    2    3   -0.38176759E-01 -0.77247930E-11
    3    3    0.15321719E-01  0.34612241E-09
    4    3    0.15396618E-02 -0.11779765E-08
    1    4   -0.38176758E-01 -0.19080333E-08
    2    4    0.32232675E-01  0.15526502E-08
    3    4    0.32232676E-01 -0.81657445E-09
    4    4    0.15321719E-01  0.52137158E-09

   -1    1    2
    1    1    0.15749601E-01 -0.39096134E-09
    2    1    0.15396611E-02  0.14130007E-08
    3    1   -0.19883011E-02  0.14597525E-08
    4    1   -0.79546418E-02  0.47662514E-09
    1    2    0.15396632E-02 -0.59713552E-09
    2    2    0.15749602E-01 -0.13761890E-09
    3    2   -0.19882992E-02 -0.11395472E-08
    4    2   -0.79546423E-02  0.80525883E-09
    1    3   -0.79546413E-02  0.13613638E-08
    2    3   -0.79546425E-02  0.12083697E-09
    3    3    0.12409574E-01 -0.20923207E-09
    4    3   -0.35022553E-02 -0.21865165E-09
    1    4   -0.19882995E-02 -0.86475536E-09
    2    4   -0.19883004E-02  0.12401075E-08
    3    4   -0.40231922E-02  0.55679111E-11
    4    4    0.12409574E-01  0.73780331E-09

   -1    2   -2
    1    1    0.12409574E-01 -0.14400960E-09
    2    1   -0.79546413E-02  0.72491066E-09
    3    1   -0.79546427E-02 -0.11001158E-08
    4    1   -0.35022550E-02 -0.61913460E-09
    1    2   -0.19883017E-02  0.16714889E-08
    2    2    0.15749601E-01 -0.29435446E-09
    3    2    0.15396627E-02 -0.24034245E-09
    4    2   -0.79546420E-02  0.71943153E-09
    1    3   -0.19882998E-02  0.77810244E-09
    2    3    0.15396623E-02 -0.56730125E-09
    3    3    0.15749603E-01 -0.38773651E-10
    4    3   -0.79546431E-02  0.47644626E-09
    1    4   -0.40231920E-02 -0.67891907E-09
    2    4   -0.19883016E-02 -0.14822749E-08
    3    4   -0.19882984E-02 -0.15003929E-09
    4    4    0.12409574E-01  0.47715937E-09

   -1    2   -1
    1    1    0.31513805E-02  0.25608282E-09
    2    1   -0.19883000E-02 -0.11633453E-08
    3    1   -0.38176756E-01  0.73104647E-10
    4    1   -0.19882999E-02 -0.48170008E-09
    1    2    0.30209096E-01 -0.10969833E-08
    2    2   -0.12934226E-01  0.18210612E-09
    3    2    0.10031798E+00 -0.17194862E-08
    4    2   -0.21538153E-01  0.92318537E-09
    1    3   -0.85402698E-02  0.80013394E-09
    2    3    0.13490017E-01 -0.35582665E-09
    3    3   -0.88751243E-04  0.39219341E-09
    4    3    0.13490015E-01 -0.47498373E-09
    1    4    0.30209091E-01 -0.49191880E-09
    2    4   -0.21538152E-01  0.18588535E-09
    3    4    0.10031798E+00 -0.17868078E-08
    4    4   -0.12934225E-01 -0.83035495E-09

   -1    2    0
    1    1   -0.12934226E-01  0.71184961E-10
    2    1    0.30209091E-01 -0.95559243E-09
    3    1    0.10031798E+00  0.21881764E-09
    4    1   -0.21538151E-01  0.17000893E-08
    1    2   -0.19882989E-02  0.21997511E-09
    2    2    0.31513802E-02  0.32044109E-09
    3    2   -0.38176756E-01  0.15018463E-08
    4    2   -0.19882991E-02 -0.14804003E-08
    1    3    0.13490018E-01 -0.96604242E-09
    2    3   -0.85402674E-02 -0.12722132E-08
    3    3   -0.88751220E-04 -0.38711534E-09
    4    3    0.13490014E-01 -0.94795496E-09
    1    4   -0.21538153E-01 -0.16362675E-08
    2    4    0.30209094E-01  0.23534680E-08
    3    4    0.10031798E+00  0.15199331E-08
    4    4   -0.12934225E-01 -0.45308757E-11

   -1    2    1
    1    1    0.15749602E-01 -0.54420642E-09
    2    1   -0.19883013E-02  0.48888873E-09
    3    1    0.15396610E-02  0.14179127E-09
    4    1   -0.79546423E-02 -0.19880445E-10
    1    2   -0.79546425E-02  0.35765707E-09
    2    2    0.12409574E-01  0.39977278E-09
    3    2   -0.79546409E-02 -0.21547232E-10
    4    2   -0.35022546E-02  0.22367240E-10
    1    3    0.15396642E-02  0.12899572E-08
    2    3   -0.19882993E-02 -0.62464604E-09
    3    3    0.15749602E-01 -0.26848531E-09
    4    3   -0.79546423E-02  0.16738875E-09
    1    4   -0.19882986E-02 -0.13693134E-08
    2    4   -0.40231932E-02 -0.11789993E-09
    3    4   -0.19883011E-02  0.18635432E-08
    4    4    0.12409573E-01  0.41290586E-09

   -1    3   -1
    1    1    0.73784761E-02  0.49929680E-09
    2    1   -0.85402715E-02  0.33803441E-09
    3    1   -0.85402694E-02  0.53174937E-09
    4    1   -0.85402680E-02  0.63100600E-09
    1    2   -0.85402675E-02 -0.12709558E-08
    2    2    0.73784758E-02 -0.18091167E-09
    3    2   -0.85402722E-02 -0.71506759E-10
    4    2   -0.85402707E-02  0.79178716E-09
    1    3   -0.85402695E-02 -0.93771119E-09
    2    3   -0.85402687E-02 -0.31269723E-09
    3    3    0.73784754E-02  0.38338671E-09
    4    3   -0.85402717E-02 -0.10212957E-09
    1    4   -0.85402707E-02 -0.12263688E-08
    2    4   -0.85402687E-02  0.92154231E-09
    3    4   -0.85402680E-02  0.46480624E-09
    4    4    0.73784759E-02 -0.70174899E-09

    0   -2    0
    1    1    0.17684995E+00  0.63034583E-15
    2    1   -0.21538153E-01 -0.65990503E-09
    3    1   -0.25466096E+00  0.17330739E-08
    4    1   -0.21538150E-01  0.28000072E-09
    1    2   -0.21538153E-01  0.65990472E-09
    2    2   -0.17298477E-01  0.49856191E-15
    3    2   -0.21538151E-01  0.11423743E-08
    4    2   -0.40231922E-02 -0.98557744E-09
    1    3   -0.25466096E+00 -0.17330744E-08
    2    3   -0.21538151E-01 -0.11423746E-08
    3    3    0.17684995E+00  0.58483645E-15
    4    3   -0.21538154E-01  0.17818773E-09
    1    4   -0.21538150E-01 -0.28000101E-09
    2    4   -0.40231922E-02  0.98557718E-09
    3    4   -0.21538154E-01 -0.17818807E-09
    4    4   -0.17298475E-01  0.48661525E-15

    0   -2    1
    1    1   -0.12934225E-01  0.12804695E-09
    2    1   -0.21538152E-01  0.58447356E-09
    3    1    0.13490016E-01  0.15135391E-08
    4    1   -0.19883006E-02 -0.12506040E-08
    1    2   -0.21538153E-01  0.65944434E-09
    2    2   -0.12934225E-01 -0.73636547E-09
    3    2    0.13490016E-01 -0.24010220E-09
    4    2   -0.19882986E-02  0.15599339E-08
    1    3    0.10031798E+00  0.13817396E-08
    2    3    0.10031798E+00  0.16556919E-08
    3    3   -0.88751973E-04 -0.30287950E-09
    4    3   -0.38176759E-01 -0.14408044E-10
    1    4    0.30209097E-01  0.27039401E-09
    2    4    0.30209092E-01 -0.76199937E-09
    3    4   -0.85402733E-02  0.19176132E-09
    4    4    0.31513801E-02  0.91117666E-09

    0   -2    2
    1    1   -0.17298476E-01  0.36591823E-17
    2    1   -0.21538152E-01  0.11770628E-08
    3    1   -0.21538151E-01 -0.61195978E-09
    4    1   -0.40231928E-02 -0.19868871E-08
    1    2   -0.21538152E-01 -0.11770628E-08
    2    2    0.17684995E+00  0.61484553E-16
    3    2   -0.25466097E+00  0.57901935E-09
    4    2   -0.21538153E-01  0.14577134E-08
    1    3   -0.21538151E-01  0.61195982E-09
    2    3   -0.25466097E+00 -0.57901935E-09
    3    3    0.17684995E+00 -0.39834497E-16
    4    3   -0.21538154E-01  0.13849169E-08
    1    4   -0.40231928E-02  0.19868871E-08
    2    4   -0.21538153E-01 -0.14577134E-08
    3    4   -0.21538154E-01 -0.13849169E-08
    4    4   -0.17298476E-01  0.74403373E-17

    0   -1   -1
    1    1   -0.88750419E-04 -0.48010943E-09
    2    1    0.13490016E-01  0.12086923E-08
    3    1    0.13490017E-01  0.86277671E-09
    4    1   -0.85402685E-02 -0.33912596E-09
    1    2    0.10031798E+00 -0.14323322E-08
    2    2   -0.12934226E-01  0.13137399E-08
    3    2   -0.21538154E-01  0.55474579E-11
    4    2    0.30209095E-01  0.24858599E-08
    1    3    0.10031798E+00 -0.60995721E-09
    2    3   -0.21538152E-01 -0.34623404E-09
    3    3   -0.12934226E-01  0.12918129E-09
    4    3    0.30209093E-01 -0.18528964E-09
    1    4   -0.38176756E-01 -0.12713842E-09
    2    4   -0.19882998E-02  0.18276818E-09
    3    4   -0.19883001E-02  0.79858186E-09
    4    4    0.31513799E-02 -0.96285243E-09

    0   -1    0
    1    1    0.90072608E+00 -0.10201082E-08
    2    1    0.10031798E+00 -0.22477156E-09
    3    1   -0.25466097E+00  0.27049401E-08
    4    1    0.10031798E+00 -0.18873830E-08
    1    2   -0.61523841E+00  0.29583340E-08
    2    2   -0.24443525E+00  0.87231333E-10
    3    2    0.10031798E+00 -0.49193156E-09
    4    2    0.32232675E-01  0.24186377E-08
    1    3   -0.20896483E+01  0.99039557E-09
    2    3   -0.61523840E+00 -0.25189321E-08
    3    3    0.90072608E+00  0.61374289E-09
    4    3   -0.61523841E+00  0.20640490E-08
    1    4   -0.61523840E+00 -0.90153768E-09
    2    4    0.32232673E-01  0.26992460E-08
    3    4    0.10031797E+00  0.90538479E-10
    4    4   -0.24443525E+00  0.31911265E-09

    0   -1    1
    1    1   -0.24443525E+00 -0.31809565E-09
    2    1   -0.61523840E+00  0.11251849E-08
    3    1    0.10031797E+00 -0.12314000E-08
    4    1    0.32232674E-01 -0.39345190E-08
    1    2    0.10031798E+00 -0.86192546E-10
    2    2    0.90072608E+00 -0.25571181E-09
    3    2   -0.25466097E+00 -0.74401707E-09
    4    2    0.10031798E+00  0.25574437E-08
    1    3   -0.61523841E+00  0.34990166E-08
    2    3   -0.20896483E+01  0.60020000E-09
    3    3    0.90072608E+00  0.14207580E-08
    4    3   -0.61523841E+00  0.23807576E-08
    1    4    0.32232673E-01  0.50002871E-09
    2    4   -0.61523841E+00 -0.53903641E-08
    3    4    0.10031797E+00  0.19822258E-09
    4    4   -0.24443525E+00 -0.84695445E-09

    0   -1    2
    1    1   -0.12934225E-01 -0.13377068E-09
    2    1    0.10031798E+00 -0.25979459E-08
    3    1   -0.21538152E-01 -0.11983324E-08
    4    1    0.30209095E-01  0.56098414E-09
    1    2    0.13490018E-01 -0.10960773E-08
    2    2   -0.88751068E-04  0.66170419E-09
    3    2    0.13490015E-01 -0.72585297E-09
    4    2   -0.85402710E-02  0.12065634E-08
    1    3   -0.21538154E-01  0.65520561E-10
    2    3    0.10031798E+00 -0.14234701E-08
    3    3   -0.12934225E-01  0.88303781E-10
    4    3    0.30209091E-01  0.84304054E-09
    1    4   -0.19883009E-02  0.10964292E-08
    2    4   -0.38176759E-01 -0.13201370E-08
    3    4   -0.19883000E-02  0.35298622E-09
    4    4    0.31513792E-02 -0.61619065E-09

    0    0   -2
    1    1    0.17684995E+00  0.63942603E-15
    2    1   -0.25466097E+00  0.15488873E-08
    3    1   -0.21538154E-01  0.85237433E-09
    4    1   -0.21538151E-01  0.62769660E-09
    1    2   -0.25466097E+00 -0.15488877E-08
    2    2    0.17684995E+00  0.61873799E-15
    3    2   -0.21538155E-01 -0.29001295E-09
    4    2   -0.21538153E-01  0.93266794E-09
    1    3   -0.21538154E-01 -0.85237457E-09
    2    3   -0.21538155E-01  0.29001274E-09
    3    3   -0.17298478E-01  0.49256481E-15
    4    3   -0.40231912E-02  0.62313815E-09
    1    4   -0.21538151E-01 -0.62769694E-09
    2    4   -0.21538153E-01 -0.93266824E-09
    3    4   -0.40231912E-02 -0.62313844E-09
    4    4   -0.17298475E-01  0.50060146E-15

    0    0   -1
    1    1    0.90072608E+00 -0.13365503E-08
    2    1   -0.25466096E+00  0.21056926E-08
    3    1    0.10031798E+00  0.14161973E-08
    4    1    0.10031798E+00 -0.25426306E-08
    1    2   -0.20896483E+01 -0.56929051E-09
    2    2    0.90072608E+00  0.16356910E-09
    3    2   -0.61523841E+00 -0.27196838E-08
    4    2   -0.61523841E+00  0.68947579E-08
    1    3   -0.61523841E+00 -0.46854985E-10
    2    3    0.10031798E+00  0.31558052E-09
    3    3   -0.24443525E+00 -0.92546651E-09
    4    3    0.32232676E-01  0.17506707E-08
    1    4   -0.61523840E+00  0.62855121E-09
    2    4    0.10031797E+00  0.51728404E-09
    3    4    0.32232672E-01 -0.35399632E-09
    4    4   -0.24443525E+00  0.20984633E-08

    0    0    0
    1    1    0.83718321E+01 -0.15558301E-16
    2    1   -0.20896483E+01 -0.12360991E-08
    3    1   -0.20896483E+01  0.73407135E-09
    4    1   -0.20896483E+01 -0.21388158E-08
    1    2   -0.20896483E+01  0.12360991E-08
    2    2    0.83718321E+01 -0.28290795E-16
    3    2   -0.20896483E+01  0.66553374E-09
    4    2   -0.20896483E+01 -0.97854688E-09
    1    3   -0.20896483E+01 -0.73407135E-09
    2    3   -0.20896483E+01 -0.66553374E-09
    3    3    0.83718321E+01  0.32661590E-16
    4    3   -0.20896483E+01  0.17288367E-08
    1    4   -0.20896483E+01  0.21388158E-08
    2    4   -0.20896483E+01  0.97854688E-09
    3    4   -0.20896483E+01 -0.17288367E-08
    4    4    0.83718321E+01  0.18607620E-16

    0    0    1
    1    1    0.90072608E+00  0.13365503E-08
    2    1   -0.20896483E+01  0.56929051E-09
    3    1   -0.61523841E+00  0.46854985E-10
    4    1   -0.61523840E+00 -0.62855121E-09
    1    2   -0.25466096E+00 -0.21056926E-08
    2    2    0.90072608E+00 -0.16356910E-09
    3    2    0.10031798E+00 -0.31558052E-09
    4    2    0.10031797E+00 -0.51728404E-09
    1    3    0.10031798E+00 -0.14161973E-08
    2    3   -0.61523841E+00  0.27196838E-08
    3    3   -0.24443525E+00  0.92546651E-09
    4    3    0.32232672E-01  0.35399632E-09
    1    4    0.10031798E+00  0.25426306E-08
    2    4   -0.61523841E+00 -0.68947579E-08
    3    4    0.32232676E-01 -0.17506707E-08
    4    4   -0.24443525E+00 -0.20984633E-08

    0    0    2
    1    1    0.17684995E+00 -0.54146836E-15
    2    1   -0.25466097E+00  0.15488877E-08
    3    1   -0.21538154E-01  0.85237457E-09
    4    1   -0.21538151E-01  0.62769694E-09
    1    2   -0.25466097E+00 -0.15488873E-08
    2    2    0.17684995E+00 -0.56215640E-15
    3    2   -0.21538155E-01 -0.29001274E-09
    4    2   -0.21538153E-01  0.93266824E-09
    1    3   -0.21538154E-01 -0.85237433E-09
    2    3   -0.21538155E-01  0.29001295E-09
    3    3   -0.17298478E-01 -0.47917492E-15
    4    3   -0.40231912E-02  0.62313844E-09
    1    4   -0.21538151E-01 -0.62769660E-09
    2    4   -0.21538153E-01 -0.93266794E-09
    3    4   -0.40231912E-02 -0.62313815E-09
    4    4   -0.17298475E-01 -0.47113827E-15

    0    1   -2
    1    1   -0.12934225E-01  0.13377073E-09
    2    1    0.13490018E-01  0.10960773E-08
    3    1   -0.21538154E-01 -0.65520561E-10
    4    1   -0.19883009E-02 -0.10964292E-08
    1    2    0.10031798E+00  0.25979459E-08
    2    2   -0.88751068E-04 -0.66170419E-09
    3    2    0.10031798E+00  0.14234701E-08
    4    2   -0.38176759E-01  0.13201370E-08
    1    3   -0.21538152E-01  0.11983324E-08
    2    3    0.13490015E-01  0.72585297E-09
    3    3   -0.12934225E-01 -0.88303670E-10
    4    3   -0.19883000E-02 -0.35298622E-09
    1    4    0.30209095E-01 -0.56098414E-09
    2    4   -0.85402710E-02 -0.12065634E-08
    3    4    0.30209091E-01 -0.84304054E-09
    4    4    0.31513792E-02  0.61619065E-09

    0    1   -1
    1    1   -0.24443525E+00  0.31809579E-09
    2    1    0.10031798E+00  0.86192546E-10
    3    1   -0.61523841E+00 -0.34990166E-08
    4    1    0.32232673E-01 -0.50002871E-09
    1    2   -0.61523840E+00 -0.11251849E-08
    2    2    0.90072608E+00  0.25571182E-09
    3    2   -0.20896483E+01 -0.60020000E-09
    4    2   -0.61523841E+00  0.53903641E-08
    1    3    0.10031797E+00  0.12314000E-08
    2    3   -0.25466097E+00  0.74401707E-09
    3    3    0.90072608E+00 -0.14207580E-08
    4    3    0.10031797E+00 -0.19822258E-09
    1    4    0.32232674E-01  0.39345190E-08
    2    4    0.10031798E+00 -0.25574437E-08
    3    4   -0.61523841E+00 -0.23807576E-08
    4    4   -0.24443525E+00  0.84695437E-09

    0    1    0
    1    1    0.90072608E+00  0.10201082E-08
    2    1   -0.61523841E+00 -0.29583340E-08
    3    1   -0.20896483E+01 -0.99039557E-09
    4    1   -0.61523840E+00  0.90153768E-09
    1    2    0.10031798E+00  0.22477156E-09
    2    2   -0.24443525E+00 -0.87231222E-10
    3    2   -0.61523840E+00  0.25189321E-08
    4    2    0.32232673E-01 -0.26992460E-08
    1    3   -0.25466097E+00 -0.27049401E-08
    2    3    0.10031798E+00  0.49193156E-09
    3    3    0.90072608E+00 -0.61374289E-09
    4    3    0.10031797E+00 -0.90538479E-10
    1    4    0.10031798E+00  0.18873830E-08
    2    4    0.32232675E-01 -0.24186377E-08
    3    4   -0.61523841E+00 -0.20640490E-08
    4    4   -0.24443525E+00 -0.31911257E-09

    0    1    1
    1    1   -0.88750419E-04  0.48010944E-09
    2    1    0.10031798E+00  0.14323322E-08
    3    1    0.10031798E+00  0.60995721E-09
    4    1   -0.38176756E-01  0.12713842E-09
    1    2    0.13490016E-01 -0.12086923E-08
    2    2   -0.12934226E-01 -0.13137399E-08
    3    2   -0.21538152E-01  0.34623404E-09
    4    2   -0.19882998E-02 -0.18276818E-09
    1    3    0.13490017E-01 -0.86277671E-09
    2    3   -0.21538154E-01 -0.55474579E-11
    3    3   -0.12934226E-01 -0.12918111E-09
    4    3   -0.19883001E-02 -0.79858186E-09
    1    4   -0.85402685E-02  0.33912596E-09
    2    4    0.30209095E-01 -0.24858599E-08
    3    4    0.30209093E-01  0.18528964E-09
    4    4    0.31513799E-02  0.96285243E-09

    0    2   -2
    1    1   -0.17298476E-01  0.36591824E-17
    2    1   -0.21538152E-01  0.11770628E-08
    3    1   -0.21538151E-01 -0.61195982E-09
    4    1   -0.40231928E-02 -0.19868871E-08
    1    2   -0.21538152E-01 -0.11770628E-08
    2    2    0.17684995E+00  0.34561995E-16
    3    2   -0.25466097E+00  0.57901935E-09
    4    2   -0.21538153E-01  0.14577134E-08
    1    3   -0.21538151E-01  0.61195978E-09
    2    3   -0.25466097E+00 -0.57901935E-09
    3    3    0.17684995E+00 -0.12911939E-16
    4    3   -0.21538154E-01  0.13849169E-08
    1    4   -0.40231928E-02  0.19868871E-08
    2    4   -0.21538153E-01 -0.14577134E-08
    3    4   -0.21538154E-01 -0.13849169E-08
    4    4   -0.17298476E-01  0.74403375E-17

    0    2   -1
    1    1   -0.12934225E-01 -0.12804689E-09
    2    1   -0.21538153E-01 -0.65944434E-09
    3    1    0.10031798E+00 -0.13817396E-08
    4    1    0.30209097E-01 -0.27039401E-09
    1    2   -0.21538152E-01 -0.58447356E-09
    2    2   -0.12934225E-01  0.73636558E-09
    3    2    0.10031798E+00 -0.16556919E-08
    4    2    0.30209092E-01  0.76199937E-09
    1    3    0.13490016E-01 -0.15135391E-08
    2    3    0.13490016E-01  0.24010220E-09
    3    3   -0.88751973E-04  0.30287955E-09
    4    3   -0.85402733E-02 -0.19176132E-09
    1    4   -0.19883006E-02  0.12506040E-08
    2    4   -0.19882986E-02 -0.15599339E-08
    3    4   -0.38176759E-01  0.14408044E-10
    4    4    0.31513801E-02 -0.91117675E-09

    0    2    0
    1    1    0.17684995E+00 -0.55054855E-15
    2    1   -0.21538153E-01 -0.65990472E-09
    3    1   -0.25466096E+00  0.17330744E-08
    4    1   -0.21538150E-01  0.28000101E-09
    1    2   -0.21538153E-01  0.65990503E-09
    2    2   -0.17298477E-01 -0.47317782E-15
    3    2   -0.21538151E-01  0.11423746E-08
    4    2   -0.40231922E-02 -0.98557718E-09
    1    3   -0.25466096E+00 -0.17330739E-08
    2    3   -0.21538151E-01 -0.11423743E-08
    3    3    0.17684995E+00 -0.59605794E-15
    4    3   -0.21538154E-01  0.17818807E-09
    1    4   -0.21538150E-01 -0.28000072E-09
    2    4   -0.40231922E-02  0.98557744E-09
    3    4   -0.21538154E-01 -0.17818773E-09
    4    4   -0.17298475E-01 -0.48512448E-15

    1   -3    1
    1    1    0.73784761E-02 -0.49929669E-09
    2    1   -0.85402675E-02  0.12709558E-08
    3    1   -0.85402695E-02  0.93771119E-09
    4    1   -0.85402707E-02  0.12263688E-08
    1    2   -0.85402715E-02 -0.33803441E-09
    2    2    0.73784758E-02  0.18091173E-09
    3    2   -0.85402687E-02  0.31269723E-09
    4    2   -0.85402687E-02 -0.92154231E-09
    1    3   -0.85402694E-02 -0.53174937E-09
    2    3   -0.85402722E-02  0.71506759E-10
    3    3    0.73784754E-02 -0.38338679E-09
    4    3   -0.85402680E-02 -0.46480624E-09
    1    4   -0.85402680E-02 -0.63100600E-09
    2    4   -0.85402707E-02 -0.79178716E-09
    3    4   -0.85402717E-02  0.10212957E-09
    4    4    0.73784759E-02  0.70174899E-09

    1   -2   -1
    1    1    0.15749602E-01  0.54420641E-09
    2    1   -0.79546425E-02 -0.35765707E-09
    3    1    0.15396642E-02 -0.12899572E-08
    4    1   -0.19882986E-02  0.13693134E-08
    1    2   -0.19883013E-02 -0.48888873E-09
    2    2    0.12409574E-01 -0.39977278E-09
    3    2   -0.19882993E-02  0.62464604E-09
    4    2   -0.40231932E-02  0.11789993E-09
    1    3    0.15396610E-02 -0.14179127E-09
    2    3   -0.79546409E-02  0.21547232E-10
    3    3    0.15749602E-01  0.26848526E-09
    4    3   -0.19883011E-02 -0.18635432E-08
    1    4   -0.79546423E-02  0.19880445E-10
    2    4   -0.35022546E-02 -0.22367240E-10
    3    4   -0.79546423E-02 -0.16738875E-09
    4    4    0.12409573E-01 -0.41290588E-09

    1   -2    0
    1    1   -0.12934226E-01 -0.71184905E-10
    2    1   -0.19882989E-02 -0.21997511E-09
    3    1    0.13490018E-01  0.96604242E-09
    4    1   -0.21538153E-01  0.16362675E-08
    1    2    0.30209091E-01  0.95559243E-09
    2    2    0.31513802E-02 -0.32044115E-09
    3    2   -0.85402674E-02  0.12722132E-08
    4    2    0.30209094E-01 -0.23534680E-08
    1    3    0.10031798E+00 -0.21881764E-09
    2    3   -0.38176756E-01 -0.15018463E-08
    3    3   -0.88751220E-04  0.38711523E-09
    4    3    0.10031798E+00 -0.15199331E-08
    1    4   -0.21538151E-01 -0.17000893E-08
    2    4   -0.19882991E-02  0.14804003E-08
    3    4    0.13490014E-01  0.94795496E-09
    4    4   -0.12934225E-01  0.45308479E-11

    1   -2    1
    1    1    0.31513805E-02 -0.25608281E-09
    2    1    0.30209096E-01  0.10969833E-08
    3    1   -0.85402698E-02 -0.80013394E-09
    4    1    0.30209091E-01  0.49191880E-09
    1    2   -0.19883000E-02  0.11633453E-08
    2    2   -0.12934226E-01 -0.18210609E-09
    3    2    0.13490017E-01  0.35582665E-09
    4    2   -0.21538152E-01 -0.18588535E-09
    1    3   -0.38176756E-01 -0.73104647E-10
    2    3    0.10031798E+00  0.17194862E-08
    3    3   -0.88751243E-04 -0.39219344E-09
    4    3    0.10031798E+00  0.17868078E-08
    1    4   -0.19882999E-02  0.48170008E-09
    2    4   -0.21538153E-01 -0.92318537E-09
    3    4    0.13490015E-01  0.47498373E-09
    4    4   -0.12934225E-01  0.83035496E-09

    1   -2    2
    1    1    0.12409574E-01  0.14400960E-09
    2    1   -0.19883017E-02 -0.16714889E-08
    3    1   -0.19882998E-02 -0.77810244E-09
    4    1   -0.40231920E-02  0.67891907E-09
    1    2   -0.79546413E-02 -0.72491066E-09
    2    2    0.15749601E-01  0.29435449E-09
    3    2    0.15396623E-02  0.56730125E-09
    4    2   -0.19883016E-02  0.14822749E-08
    1    3   -0.79546427E-02  0.11001158E-08
    2    3    0.15396627E-02  0.24034245E-09
    3    3    0.15749603E-01  0.38773595E-10
    4    3   -0.19882984E-02  0.15003929E-09
    1    4   -0.35022550E-02  0.61913460E-09
    2    4   -0.79546420E-02 -0.71943153E-09
    3    4   -0.79546431E-02 -0.47644626E-09
    4    4    0.12409574E-01 -0.47715934E-09

    1   -1   -2
    1    1    0.15749601E-01  0.39096145E-09
    2    1    0.15396632E-02  0.59713552E-09
    3    1   -0.79546413E-02 -0.13613638E-08
    4    1   -0.19882995E-02  0.86475536E-09
    1    2    0.15396611E-02 -0.14130007E-08
    2    2    0.15749602E-01  0.13761887E-09
    3    2   -0.79546425E-02 -0.12083697E-09
    4    2   -0.19883004E-02 -0.12401075E-08
    1    3   -0.19883011E-02 -0.14597525E-08
    2    3   -0.19882992E-02  0.11395472E-08
    3    3    0.12409574E-01  0.20923214E-09
    4    3   -0.40231922E-02 -0.55679111E-11
    1    4   -0.79546418E-02 -0.47662514E-09
    2    4   -0.79546423E-02 -0.80525883E-09
    3    4   -0.35022553E-02  0.21865165E-09
    4    4    0.12409574E-01 -0.73780336E-09

    1   -1   -1
    1    1    0.15321720E-01  0.10170686E-08
    2    1    0.15396628E-02  0.13170648E-08
    3    1    0.15396645E-02  0.10641941E-08
    4    1   -0.38176758E-01  0.19080333E-08
    1    2    0.32232674E-01 -0.11258366E-08
    2    2    0.15321719E-01 -0.14954901E-09
    3    2   -0.38176759E-01  0.77247930E-11
    4    2    0.32232675E-01 -0.15526502E-08
    1    3    0.32232674E-01 -0.92880344E-09
    2    3   -0.38176758E-01  0.24341949E-09
    3    3    0.15321719E-01 -0.34612246E-09
    4    3    0.32232676E-01  0.81657445E-09
    1    4   -0.38176756E-01 -0.70457012E-09
    2    4    0.15396612E-02 -0.67403165E-09
    3    4    0.15396618E-02  0.11779765E-08
    4    4    0.15321719E-01 -0.52137161E-09

    1   -1    0
    1    1   -0.24443525E+00  0.10498008E-09
    2    1    0.32232675E-01  0.22498362E-08
    3    1    0.10031798E+00  0.49641448E-09
    4    1   -0.61523841E+00  0.19523991E-08
    1    2    0.32232674E-01  0.22910396E-08
    2    2   -0.24443525E+00 -0.51526391E-09
    3    2    0.10031798E+00  0.16496007E-09
    4    2   -0.61523841E+00 -0.38999242E-08
    1    3   -0.61523840E+00 -0.10981207E-08
    2    3   -0.61523840E+00 -0.21240792E-08
    3    3    0.90072608E+00 -0.13593125E-10
    4    3   -0.20896483E+01  0.24415146E-08
    1    4    0.10031797E+00 -0.11363373E-08
    2    4    0.10031798E+00  0.13879026E-08
    3    4   -0.25466097E+00  0.21486539E-08
    4    4    0.90072608E+00  0.42388365E-09

    1   -1    1
    1    1    0.15321719E-01 -0.63707091E-09
    2    1    0.32232672E-01 -0.19189163E-08
    3    1   -0.38176756E-01 -0.85025310E-09
    4    1    0.32232673E-01  0.33038121E-08
    1    2    0.15396623E-02 -0.58744632E-09
    2    2    0.15321719E-01  0.10611233E-08
    3    2    0.15396610E-02  0.13565594E-09
    4    2   -0.38176759E-01 -0.49980858E-09
    1    3   -0.38176759E-01 -0.76586601E-09
    2    3    0.32232675E-01  0.22812607E-09
    3    3    0.15321720E-01  0.62453653E-11
    4    3    0.32232675E-01  0.22792308E-08
    1    4    0.15396630E-02  0.14934028E-09
    2    4   -0.38176759E-01 -0.72723018E-09
    3    4    0.15396609E-02 -0.60248444E-09
    4    4    0.15321719E-01 -0.43035356E-09

    1   -1    2
    1    1    0.15749601E-01  0.39096145E-09
    2    1    0.15396632E-02  0.59713551E-09
    3    1   -0.79546413E-02 -0.13613638E-08
    4    1   -0.19882995E-02  0.86475541E-09
    1    2    0.15396611E-02 -0.14130008E-08
    2    2    0.15749602E-01  0.13761887E-09
    3    2   -0.79546425E-02 -0.12083693E-09
    4    2   -0.19883004E-02 -0.12401075E-08
    1    3   -0.19883011E-02 -0.14597524E-08
    2    3   -0.19882992E-02  0.11395473E-08
    3    3    0.12409574E-01  0.20923198E-09
    4    3   -0.40231922E-02 -0.55677056E-11
    1    4   -0.79546418E-02 -0.47662511E-09
    2    4   -0.79546423E-02 -0.80525886E-09
    3    4   -0.35022553E-02  0.21865174E-09
    4    4    0.12409574E-01 -0.73780355E-09

    1    0   -2
    1    1   -0.12934225E-01 -0.74131680E-09
    2    1    0.13490018E-01  0.11682742E-08
    3    1   -0.19882991E-02  0.14089419E-08
    4    1   -0.21538153E-01  0.44775963E-09
    1    2    0.10031797E+00 -0.12661383E-08
    2    2   -0.88752288E-04  0.77361062E-10
    3    2   -0.38176759E-01 -0.13281239E-08
    4    2    0.10031798E+00 -0.76297509E-09
    1    3    0.30209093E-01  0.73887215E-09
    2    3   -0.85402719E-02  0.16314534E-09
    3    3    0.31513806E-02 -0.20500510E-09
    4    3    0.30209096E-01  0.62733604E-09
    1    4   -0.21538151E-01 -0.19307724E-08
    2    4    0.13490015E-01 -0.21576124E-08
    3    4   -0.19883003E-02  0.14973815E-08
    4    4   -0.12934225E-01  0.86899429E-09

    1    0   -1
    1    1   -0.24443525E+00 -0.42009381E-09
    2    1    0.10031798E+00  0.63668871E-09
    3    1    0.32232674E-01  0.15324231E-08
    4    1   -0.61523841E+00  0.15767836E-08
    1    2   -0.61523840E+00 -0.20848682E-09
    2    2    0.90072608E+00  0.41017514E-09
    3    2   -0.61523841E+00 -0.33521560E-08
    4    2   -0.20896483E+01  0.35671275E-08
    1    3    0.32232673E-01  0.12526089E-08
    2    3    0.10031797E+00 -0.90734011E-09
    3    3   -0.24443525E+00 -0.97463161E-09
    4    3   -0.61523840E+00  0.97897845E-09
    1    4    0.10031797E+00 -0.47461604E-10
    2    4   -0.25466097E+00  0.18276651E-08
    3    4    0.10031798E+00  0.57574496E-09
    4    4    0.90072608E+00  0.98457431E-09

    1    0    0
    1    1    0.90072608E+00  0.15676863E-10
    2    1   -0.61523842E+00 -0.35340842E-08
    3    1   -0.61523841E+00  0.50965284E-09
    4    1   -0.20896483E+01  0.36387153E-08
    1    2    0.10031798E+00  0.25380314E-08
    2    2   -0.24443525E+00  0.16310434E-08
    3    2    0.32232676E-01  0.12222695E-08
    4    2   -0.61523841E+00 -0.21096633E-08
    1    3    0.10031798E+00  0.13828786E-08
    2    3    0.32232675E-01 -0.13290435E-08
    3    3   -0.24443525E+00 -0.56322888E-09
    4    3   -0.61523840E+00 -0.16873013E-08
    1    4   -0.25466097E+00  0.57632513E-09
    2    4    0.10031798E+00  0.14122106E-08
    3    4    0.10031798E+00 -0.17988086E-08
    4    4    0.90072608E+00 -0.10835245E-08

    1    0    1
    1    1   -0.88750798E-04 -0.12329316E-08
    2    1    0.10031798E+00 -0.10794239E-09
    3    1   -0.38176759E-01 -0.20388415E-09
    4    1    0.10031798E+00  0.25278431E-09
    1    2    0.13490014E-01  0.91047585E-09
    2    2   -0.12934225E-01  0.39689414E-09
    3    2   -0.19883000E-02 -0.11397219E-08
    4    2   -0.21538151E-01 -0.21060466E-09
    1    3   -0.85402715E-02 -0.35240836E-09
    2    3    0.30209091E-01  0.28460735E-09
    3    3    0.31513799E-02  0.75503708E-09
    4    3    0.30209095E-01 -0.26975330E-09
    1    4    0.13490018E-01 -0.78163893E-09
    2    4   -0.21538152E-01 -0.99341761E-09
    3    4   -0.19883005E-02 -0.11588933E-09
    4    4   -0.12934225E-01  0.80985591E-10

    1    1   -3
    1    1    0.73784761E-02 -0.49929672E-09
    2    1   -0.85402675E-02  0.12709558E-08
    3    1   -0.85402695E-02  0.93771124E-09
    4    1   -0.85402707E-02  0.12263688E-08
    1    2   -0.85402715E-02 -0.33803443E-09
    2    2    0.73784758E-02  0.18091173E-09
    3    2   -0.85402687E-02  0.31269731E-09
    4    2   -0.85402687E-02 -0.92154227E-09
    1    3   -0.85402694E-02 -0.53174938E-09
    2    3   -0.85402722E-02  0.71506717E-10
    3    3    0.73784754E-02 -0.38338679E-09
    4    3   -0.85402680E-02 -0.46480628E-09
    1    4   -0.85402680E-02 -0.63100598E-09
    2    4   -0.85402707E-02 -0.79178715E-09
    3    4   -0.85402717E-02  0.10212954E-09
    4    4    0.73784759E-02  0.70174891E-09

    1    1   -2
    1    1    0.31513798E-02  0.26742532E-09
    2    1   -0.85402686E-02  0.26886613E-08
    3    1    0.30209095E-01  0.36508525E-09
    4    1    0.30209091E-01  0.58089300E-09
    1    2   -0.38176756E-01 -0.10150724E-08
    2    2   -0.88751107E-04 -0.75877457E-09
    3    2    0.10031798E+00  0.53255128E-09
    4    2    0.10031798E+00  0.14725664E-09
    1    3   -0.19882994E-02 -0.10278564E-09
    2    3    0.13490015E-01  0.99130980E-09
    3    3   -0.12934226E-01 -0.19304719E-09
    4    3   -0.21538151E-01  0.14266291E-09
    1    4   -0.19882998E-02  0.70430450E-09
    2    4    0.13490016E-01 -0.14466758E-08
    3    4   -0.21538154E-01 -0.63041415E-09
    4    4   -0.12934225E-01  0.68438658E-09

    1    1   -1
    1    1    0.15321719E-01  0.74325199E-09
    2    1   -0.38176760E-01 -0.18247990E-08
    3    1    0.32232674E-01 -0.98238855E-09
    4    1    0.32232675E-01  0.24375986E-08
    1    2   -0.38176758E-01 -0.52441033E-09
    2    2    0.15321719E-01 -0.47526844E-10
    3    2    0.32232675E-01  0.10563796E-08
    4    2    0.32232672E-01  0.29477779E-08
    1    3    0.15396607E-02 -0.94935566E-10
    2    3    0.15396616E-02 -0.12095897E-09
    3    3    0.15321720E-01 -0.42081619E-09
    4    3   -0.38176757E-01 -0.13120878E-08
    1    4    0.15396619E-02 -0.10280285E-09
    2    4    0.15396634E-02  0.58000392E-09
    3    4   -0.38176759E-01 -0.15067366E-08
    4    4    0.15321719E-01 -0.27483713E-09

    1    1    0
    1    1   -0.88751524E-04  0.16857363E-09
    2    1   -0.38176757E-01 -0.89456231E-09
    3    1    0.10031798E+00 -0.44591267E-09
    4    1    0.10031797E+00  0.15799554E-08
    1    2   -0.85402738E-02  0.18782093E-09
    2    2    0.31513797E-02 -0.50399888E-09
    3    2    0.30209096E-01  0.10729391E-08
    4    2    0.30209093E-01 -0.19273912E-08
    1    3    0.13490014E-01 -0.99345256E-09
    2    3   -0.19883008E-02 -0.44891558E-09
    3    3   -0.12934225E-01  0.57031027E-09
    4    3   -0.21538150E-01 -0.10927027E-08
    1    4    0.13490018E-01 -0.10442779E-08
    2    4   -0.19883000E-02  0.96148467E-09
    3    4   -0.21538154E-01 -0.17861820E-08
    4    4   -0.12934225E-01 -0.23490575E-09

    1    1    1
    1    1    0.73784761E-02 -0.49929673E-09
    2    1   -0.85402675E-02  0.12709558E-08
    3    1   -0.85402695E-02  0.93771118E-09
    4    1   -0.85402707E-02  0.12263688E-08
    1    2   -0.85402715E-02 -0.33803442E-09
    2    2    0.73784758E-02  0.18091170E-09
    3    2   -0.85402687E-02  0.31269723E-09
    4    2   -0.85402687E-02 -0.92154229E-09
    1    3   -0.85402694E-02 -0.53174937E-09
    2    3   -0.85402722E-02  0.71506731E-10
    3    3    0.73784754E-02 -0.38338677E-09
    4    3   -0.85402680E-02 -0.46480626E-09
    1    4   -0.85402680E-02 -0.63100599E-09
    2    4   -0.85402707E-02 -0.79178716E-09
    3    4   -0.85402717E-02  0.10212955E-09
    4    4    0.73784759E-02  0.70174888E-09

    1    2   -2
    1    1    0.12409574E-01  0.14400965E-09
    2    1   -0.19883017E-02 -0.16714889E-08
    3    1   -0.19882998E-02 -0.77810248E-09
    4    1   -0.40231920E-02  0.67891905E-09
    1    2   -0.79546413E-02 -0.72491065E-09
    2    2    0.15749601E-01  0.29435451E-09
    3    2    0.15396623E-02  0.56730121E-09
    4    2   -0.19883016E-02  0.14822749E-08
    1    3   -0.79546427E-02  0.11001158E-08
    2    3    0.15396627E-02  0.24034248E-09
    3    3    0.15749603E-01  0.38773595E-10
    4    3   -0.19882984E-02  0.15003930E-09
    1    4   -0.35022550E-02  0.61913462E-09
    2    4   -0.79546420E-02 -0.71943153E-09
    3    4   -0.79546431E-02 -0.47644630E-09
    4    4    0.12409574E-01 -0.47715931E-09

    1    2   -1
    1    1    0.15749602E-01  0.54420646E-09
    2    1   -0.79546425E-02 -0.35765707E-09
    3    1    0.15396642E-02 -0.12899572E-08
    4    1   -0.19882986E-02  0.13693135E-08
    1    2   -0.19883013E-02 -0.48888864E-09
    2    2    0.12409574E-01 -0.39977292E-09
    3    2   -0.19882993E-02  0.62464610E-09
    4    2   -0.40231932E-02  0.11790011E-09
    1    3    0.15396610E-02 -0.14179127E-09
    2    3   -0.79546409E-02  0.21547282E-10
    3    3    0.15749602E-01  0.26848532E-09
    4    3   -0.19883011E-02 -0.18635431E-08
    1    4   -0.79546423E-02  0.19880451E-10
    2    4   -0.35022546E-02 -0.22367144E-10
    3    4   -0.79546423E-02 -0.16738877E-09
    4    4    0.12409573E-01 -0.41290595E-09

    2   -2   -2
    1    1    0.11647286E-01  0.40116930E-16
    2    1   -0.35022555E-02  0.26835397E-09
    3    1   -0.35022550E-02 -0.13625372E-08
    4    1   -0.35022547E-02  0.14396460E-09
    1    2   -0.35022555E-02 -0.26835395E-09
    2    2    0.11647286E-01 -0.11321580E-16
    3    2   -0.35022549E-02  0.59180081E-09
    4    2   -0.35022548E-02  0.85765628E-09
    1    3   -0.35022550E-02  0.13625372E-08
    2    3   -0.35022549E-02 -0.59180081E-09
    3    3    0.11647286E-01 -0.31304888E-16
    4    3   -0.35022557E-02 -0.12585166E-09
    1    4   -0.35022547E-02 -0.14396460E-09
    2    4   -0.35022548E-02 -0.85765630E-09
    3    4   -0.35022557E-02  0.12585162E-09
    4    4    0.11647286E-01  0.36481412E-16

    2   -2   -1
    1    1    0.12409573E-01  0.76018816E-10
    2    1   -0.35022547E-02 -0.49699358E-09
    3    1   -0.79546408E-02 -0.46558735E-09
    4    1   -0.79546424E-02 -0.14082460E-08
    1    2   -0.40231932E-02 -0.46331376E-09
    2    2    0.12409574E-01 -0.18727198E-09
    3    2   -0.19883003E-02 -0.34457863E-09
    4    2   -0.19882985E-02  0.51172787E-09
    1    3   -0.19883014E-02  0.66243912E-09
    2    3   -0.79546403E-02 -0.29124485E-09
    3    3    0.15749601E-01 -0.19901347E-09
    4    3    0.15396617E-02 -0.52672230E-09
    1    4   -0.19882993E-02 -0.10834569E-08
    2    4   -0.79546410E-02  0.49098318E-09
    3    4    0.15396625E-02 -0.34686631E-09
    4    4    0.15749602E-01  0.31028333E-09

    2   -2    0
    1    1   -0.17298477E-01  0.22497197E-17
    2    1   -0.40231916E-02  0.14561247E-09
    3    1   -0.21538150E-01  0.42112609E-09
    4    1   -0.21538154E-01 -0.10144962E-08
    1    2   -0.40231916E-02 -0.14561246E-09
    2    2   -0.17298477E-01 -0.27220357E-16
    3    2   -0.21538151E-01  0.11684046E-08
    4    2   -0.21538151E-01 -0.13505018E-08
    1    3   -0.21538150E-01 -0.42112607E-09
    2    3   -0.21538151E-01 -0.11684046E-08
    3    3    0.17684995E+00 -0.56585421E-16
    4    3   -0.25466096E+00 -0.13133329E-08
    1    4   -0.21538154E-01  0.10144962E-08
    2    4   -0.21538151E-01  0.13505018E-08
    3    4   -0.25466096E+00  0.13133328E-08
    4    4    0.17684995E+00  0.38547007E-16

    2   -2    1
    1    1    0.12409573E-01 -0.76018761E-10
    2    1   -0.40231932E-02  0.46331376E-09
    3    1   -0.19883014E-02 -0.66243913E-09
    4    1   -0.19882993E-02  0.10834569E-08
    1    2   -0.35022547E-02  0.49699357E-09
    2    2    0.12409574E-01  0.18727203E-09
    3    2   -0.79546403E-02  0.29124483E-09
    4    2   -0.79546410E-02 -0.49098321E-09
    1    3   -0.79546408E-02  0.46558737E-09
    2    3   -0.19883003E-02  0.34457857E-09
    3    3    0.15749601E-01  0.19901342E-09
    4    3    0.15396625E-02  0.34686629E-09
    1    4   -0.79546424E-02  0.14082460E-08
    2    4   -0.19882985E-02 -0.51172781E-09
    3    4    0.15396617E-02  0.52672229E-09
    4    4    0.15749602E-01 -0.31028335E-09

    2   -2    2
    1    1    0.11647286E-01  0.43475057E-16
    2    1   -0.35022555E-02  0.26835397E-09
    3    1   -0.35022550E-02 -0.13625372E-08
    4    1   -0.35022547E-02  0.14396460E-09
    1    2   -0.35022555E-02 -0.26835396E-09
    2    2    0.11647286E-01 -0.79634538E-17
    3    2   -0.35022549E-02  0.59180084E-09
    4    2   -0.35022548E-02  0.85765628E-09
    1    3   -0.35022550E-02  0.13625372E-08
    2    3   -0.35022549E-02 -0.59180080E-09
    3    3    0.11647286E-01 -0.52541156E-16
    4    3   -0.35022557E-02 -0.12585162E-09
    1    4   -0.35022547E-02 -0.14396460E-09
    2    4   -0.35022548E-02 -0.85765629E-09
    3    4   -0.35022557E-02  0.12585164E-09
    4    4    0.11647286E-01  0.15245143E-16

    2   -1   -2
    1    1    0.12409574E-01  0.17578128E-09
    2    1   -0.79546402E-02 -0.58077855E-10
    3    1   -0.35022549E-02 -0.49291812E-09
    4    1   -0.79546419E-02 -0.55513107E-09
    1    2   -0.19883009E-02 -0.49279533E-09
    2    2    0.15749602E-01 -0.39491646E-09
    3    2   -0.79546430E-02  0.35313932E-10
    4    2    0.15396640E-02  0.69179741E-09
    1    3   -0.40231937E-02 -0.45471452E-09
    2    3   -0.19883000E-02  0.68094072E-10
    3    3    0.12409574E-01  0.25737484E-09
    4    3   -0.19882989E-02  0.10837869E-08
    1    4   -0.19882993E-02 -0.21162955E-08
    2    4    0.15396617E-02 -0.43059210E-09
    3    4   -0.79546416E-02 -0.48949739E-09
    4    4    0.15749601E-01 -0.38258813E-10

    2   -1   -1
    1    1    0.31513795E-02  0.10985017E-09
    2    1   -0.19882993E-02  0.43893732E-09
    3    1   -0.19882993E-02  0.47059724E-09
    4    1   -0.38176759E-01 -0.21347079E-08
    1    2    0.30209096E-01 -0.34054549E-09
    2    2   -0.12934225E-01  0.58220920E-09
    3    2   -0.21538154E-01 -0.82549507E-09
    4    2    0.10031798E+00  0.21446441E-08
    1    3    0.30209094E-01 -0.14624238E-08
    2    3   -0.21538151E-01  0.20109362E-10
    3    3   -0.12934225E-01  0.21408664E-09
    4    3    0.10031798E+00  0.86095903E-09
    1    4   -0.85402731E-02  0.46842072E-10
    2    4    0.13490017E-01  0.45727128E-09
    3    4    0.13490017E-01  0.73095037E-09
    4    4   -0.88750920E-04 -0.90617569E-09

    2   -1    0
    1    1   -0.12934224E-01  0.54702076E-10
    2    1    0.30209090E-01 -0.65776385E-09
    3    1   -0.21538153E-01 -0.69428168E-09
    4    1    0.10031798E+00  0.21505239E-08
    1    2   -0.19882996E-02  0.54038379E-09
    2    2    0.31513796E-02  0.33386660E-09
    3    2   -0.19883014E-02  0.63626300E-09
    4    2   -0.38176756E-01 -0.10968541E-08
    1    3   -0.21538152E-01 -0.58649377E-09
    2    3    0.30209096E-01 -0.23947466E-09
    3    3   -0.12934226E-01 -0.60679931E-09
    4    3    0.10031798E+00  0.21401380E-08
    1    4    0.13490016E-01  0.52520578E-09
    2    4   -0.85402697E-02  0.10699148E-08
    3    4    0.13490017E-01 -0.43119616E-09
    4    4   -0.88751260E-04  0.21828778E-09

    2   -1    1
    1    1    0.15749602E-01 -0.21349129E-09
    2    1   -0.19882999E-02 -0.14334491E-09
    3    1   -0.79546425E-02 -0.29873937E-09
    4    1    0.15396627E-02  0.28458015E-09
    1    2   -0.79546433E-02  0.12702720E-08
    2    2    0.12409573E-01 -0.90928695E-10
    3    2   -0.35022557E-02 -0.62971367E-10
    4    2   -0.79546416E-02  0.21021325E-09
    1    3   -0.19883000E-02  0.43921304E-09
    2    3   -0.40231924E-02 -0.23227887E-09
    3    3    0.12409574E-01  0.37393125E-09
    4    3   -0.19882998E-02  0.11556190E-08
    1    4    0.15396626E-02 -0.95232218E-09
    2    4   -0.19883010E-02 -0.14701968E-08
    3    4   -0.79546416E-02 -0.69079082E-10
    4    4    0.15749602E-01 -0.69507050E-10

    2    0   -2
    1    1   -0.17298477E-01  0.17889336E-16
    2    1   -0.21538151E-01  0.62224582E-09
    3    1   -0.40231914E-02  0.14416360E-08
    4    1   -0.21538153E-01  0.23163686E-09
    1    2   -0.21538151E-01 -0.62224582E-09
    2    2    0.17684995E+00 -0.19417509E-16
    3    2   -0.21538155E-01  0.41948244E-09
    4    2   -0.25466097E+00 -0.91631633E-09
    1    3   -0.40231914E-02 -0.14416360E-08
    2    3   -0.21538155E-01 -0.41948245E-09
    3    3   -0.17298477E-01 -0.14772254E-16
    4    3   -0.21538150E-01  0.10720256E-08
    1    4   -0.21538153E-01 -0.23163695E-09
    2    4   -0.25466097E+00  0.91631627E-09
    3    4   -0.21538150E-01 -0.10720257E-08
    4    4    0.17684995E+00  0.30415491E-16

    2    0   -1
    1    1   -0.12934225E-01  0.46141625E-09
    2    1   -0.21538154E-01 -0.33317484E-09
    3    1    0.30209093E-01  0.13881447E-09
    4    1    0.10031798E+00  0.11632368E-08
    1    2   -0.21538151E-01 -0.10541160E-08
    2    2   -0.12934225E-01  0.11236568E-08
    3    2    0.30209093E-01 -0.76978247E-09
    4    2    0.10031798E+00  0.20798330E-08
    1    3   -0.19883000E-02  0.90456218E-09
    2    3   -0.19883005E-02  0.82103006E-09
    3    3    0.31513806E-02 -0.39398471E-09
    4    3   -0.38176756E-01 -0.62213558E-09
    1    4    0.13490015E-01  0.44133489E-09
    2    4    0.13490018E-01  0.38079630E-09
    3    4   -0.85402682E-02  0.48245963E-10
    4    4   -0.88751567E-04 -0.11910804E-08

    2    0    0
    1    1    0.17684995E+00 -0.56065874E-15
    2    1   -0.21538155E-01 -0.19284252E-08
    3    1   -0.21538154E-01 -0.38282024E-09
    4    1   -0.25466096E+00  0.35923397E-09
    1    2   -0.21538155E-01  0.19284255E-08
    2    2   -0.17298477E-01 -0.51417442E-15
    3    2   -0.40231922E-02  0.17300418E-09
    4    2   -0.21538152E-01 -0.13708791E-08
    1    3   -0.21538154E-01  0.38282052E-09
    2    3   -0.40231922E-02 -0.17300390E-09
    3    3   -0.17298477E-01 -0.43781260E-15
    4    3   -0.21538151E-01 -0.97291223E-10
    1    4   -0.25466096E+00 -0.35923352E-09
    2    4   -0.21538152E-01  0.13708794E-08
    3    4   -0.21538151E-01  0.97291536E-10
    4    4    0.17684995E+00 -0.59997462E-15

    2    1   -2
    1    1    0.12409574E-01 -0.17578114E-09
    2    1   -0.19883009E-02  0.49279534E-09
    3    1   -0.40231937E-02  0.45471452E-09
    4    1   -0.19882993E-02  0.21162955E-08
    1    2   -0.79546402E-02  0.58077855E-10
    2    2    0.15749602E-01  0.39491652E-09
    3    2   -0.19883000E-02 -0.68094155E-10
    4    2    0.15396617E-02  0.43059213E-09
    1    3   -0.35022549E-02  0.49291810E-09
    2    3   -0.79546430E-02 -0.35313905E-10
    3    3    0.12409574E-01 -0.25737490E-09
    4    3   -0.79546416E-02  0.48949733E-09
    1    4   -0.79546419E-02  0.55513105E-09
    2    4    0.15396640E-02 -0.69179740E-09
    3    4   -0.19882989E-02 -0.10837868E-08
    4    4    0.15749601E-01  0.38258813E-10

    2    1   -1
    1    1    0.15749602E-01  0.21349134E-09
    2    1   -0.79546433E-02 -0.12702719E-08
    3    1   -0.19883000E-02 -0.43921299E-09
    4    1    0.15396626E-02  0.95232218E-09
    1    2   -0.19882999E-02  0.14334499E-09
    2    2    0.12409573E-01  0.90928501E-10
    3    2   -0.40231924E-02  0.23227904E-09
    4    2   -0.19883010E-02  0.14701969E-08
    1    3   -0.79546425E-02  0.29873936E-09
    2    3   -0.35022557E-02  0.62971455E-10
    3    3    0.12409574E-01 -0.37393145E-09
    4    3   -0.79546416E-02  0.69079080E-10
    1    4    0.15396627E-02 -0.28458016E-09
    2    4   -0.79546416E-02 -0.21021327E-09
    3    4   -0.19882998E-02 -0.11556189E-08
    4    4    0.15749602E-01  0.69506972E-10

    2    2   -2
    1    1    0.11647286E-01  0.43475057E-16
    2    1   -0.35022555E-02  0.26835395E-09
    3    1   -0.35022550E-02 -0.13625372E-08
    4    1   -0.35022547E-02  0.14396460E-09
    1    2   -0.35022555E-02 -0.26835396E-09
    2    2    0.11647286E-01 -0.32557849E-16
    3    2   -0.35022549E-02  0.59180082E-09
    4    2   -0.35022548E-02  0.85765629E-09
    1    3   -0.35022550E-02  0.13625372E-08
    2    3   -0.35022549E-02 -0.59180080E-09
    3    3    0.11647286E-01 -0.27946761E-16
    4    3   -0.35022557E-02 -0.12585165E-09
    1    4   -0.35022547E-02 -0.14396461E-09
    2    4   -0.35022548E-02 -0.85765628E-09
    3    4   -0.35022557E-02  0.12585162E-09
    4    4    0.11647286E-01  0.15245143E-16

    3   -1   -1
    1    1    0.73784761E-02  0.49929681E-09
    2    1   -0.85402715E-02  0.33803444E-09
    3    1   -0.85402694E-02  0.53174936E-09
    4    1   -0.85402680E-02  0.63100600E-09
    1    2   -0.85402675E-02 -0.12709559E-08
    2    2    0.73784758E-02 -0.18091170E-09
    3    2   -0.85402722E-02 -0.71506703E-10
    4    2   -0.85402707E-02  0.79178712E-09
    1    3   -0.85402695E-02 -0.93771123E-09
    2    3   -0.85402687E-02 -0.31269723E-09
    3    3    0.73784754E-02  0.38338677E-09
    4    3   -0.85402717E-02 -0.10212954E-09
    1    4   -0.85402707E-02 -0.12263688E-08
    2    4   -0.85402687E-02  0.92154234E-09
    3    4   -0.85402680E-02  0.46480626E-09
    4    4    0.73784759E-02 -0.70174888E-09

   -3    1    1
    1    1   -0.14702161E-08  0.71920292E-10  0.84331753E-09 -0.36028767E-10  0.86287471E-09 -0.19901290E-09
    2    1    0.94875051E-03  0.35190675E-10 -0.94874954E-03 -0.16948251E-08 -0.21015892E-02 -0.77448428E-09
    3    1    0.21015894E-02 -0.33993987E-09 -0.94875005E-03 -0.16898748E-09 -0.94874961E-03 -0.61287040E-09
    4    1    0.94874880E-03  0.53038863E-09 -0.21015870E-02  0.10233673E-08 -0.94874766E-03  0.59889910E-09
    1    2   -0.17605928E-03 -0.37884524E-09  0.17605785E-03 -0.15356031E-09 -0.16395965E-02 -0.12884360E-08
    2    2    0.69979410E-09 -0.67238728E-09  0.72716205E-09 -0.60103874E-10  0.12205637E-08  0.21300011E-09
    3    2   -0.47285857E-03  0.59628349E-09  0.16256978E-02  0.48864996E-09 -0.18995642E-03  0.61251340E-09
    4    2   -0.16256980E-02 -0.75461734E-09  0.47285763E-03 -0.20941551E-09 -0.18995713E-03 -0.29763806E-09
    1    3    0.16395970E-02  0.15309698E-08  0.17605906E-03  0.56688217E-10  0.17605983E-03  0.38542252E-10
    2    3    0.18995542E-03 -0.14133316E-09  0.16256978E-02  0.78051085E-09  0.47285653E-03  0.16731233E-08
    3    3   -0.10064459E-08  0.11759196E-09  0.81731690E-09 -0.14810581E-09  0.11475565E-08  0.49665464E-09
    4    3    0.18995720E-03  0.10544402E-09  0.47285733E-03 -0.58145290E-09  0.16256969E-02 -0.50702877E-09
    1    4   -0.17605867E-03 -0.50783865E-09 -0.16395960E-02 -0.10011970E-08  0.17605797E-03  0.54321007E-09
    2    4   -0.16256991E-02  0.42489914E-09 -0.18995628E-03  0.14853272E-08  0.47285897E-03 -0.12263862E-08
    3    4   -0.47285809E-03  0.19875297E-09 -0.18995570E-03 -0.20974771E-09  0.16256982E-02  0.25691372E-10
    4    4    0.84038402E-10  0.15418034E-09 -0.78374111E-09 -0.87561664E-10  0.49301459E-09  0.84813266E-09

   -2   -2    2
    1    1   -0.23647905E-17 -0.99452105E-25 -0.97968538E-18  0.47654839E-25 -0.27049401E-17  0.13274319E-24
    2    1    0.45990243E-04  0.90660448E-09 -0.45989887E-04 -0.95870276E-09  0.19785865E-04 -0.26143109E-08
    3    1   -0.19786656E-04  0.17523934E-08 -0.45992397E-04 -0.34076694E-09 -0.45990842E-04 -0.86890331E-09
    4    1    0.45990745E-04  0.44448782E-09  0.19787440E-04 -0.31173374E-09 -0.45989867E-04  0.53382545E-09
    1    2   -0.45990243E-04  0.90660447E-09  0.45989887E-04 -0.95870276E-09 -0.19785865E-04 -0.26143109E-08
    2    2    0.95409791E-17 -0.13406126E-24  0.95409791E-17  0.35120121E-24  0.42067044E-16  0.81277271E-25
    3    2   -0.65777840E-04 -0.36341245E-09  0.63244430E-09  0.80264115E-09 -0.65777098E-04  0.11716551E-08
    4    2   -0.28253659E-09 -0.42057121E-09  0.65777526E-04  0.12729281E-08 -0.65778504E-04 -0.55017355E-09
    1    3    0.19786656E-04  0.17523934E-08  0.45992397E-04 -0.34076695E-09  0.45990842E-04 -0.86890330E-09
    2    3    0.65777840E-04 -0.36341245E-09 -0.63244430E-09  0.80264114E-09  0.65777098E-04  0.11716551E-08
    3    3    0.10658593E-16 -0.58757468E-25 -0.18898530E-16  0.58531130E-25 -0.21000110E-16  0.11924208E-24
    4    3    0.65777359E-04  0.78625825E-10  0.65776772E-04 -0.23303020E-09  0.85654328E-09 -0.15298113E-09
    1    4   -0.45990745E-04  0.44448783E-09 -0.19787440E-04 -0.31173374E-09  0.45989867E-04  0.53382546E-09
    2    4    0.28253658E-09 -0.42057120E-09 -0.65777526E-04  0.12729282E-08  0.65778504E-04 -0.55017356E-09
    3    4   -0.65777359E-04  0.78625824E-10 -0.65776772E-04 -0.23303019E-09 -0.85654329E-09 -0.15298113E-09
    4    4    0.16728655E-16 -0.25766802E-24  0.45180217E-16  0.13958384E-25 -0.13629005E-16 -0.86490681E-25

   -2   -1    1
    1    1    0.10148478E-09  0.10512806E-09 -0.85774515E-10 -0.85750195E-10  0.10148478E-09  0.10512806E-09
    2    1   -0.86861266E-03  0.48643156E-09 -0.57165854E-03 -0.12638877E-08  0.12542801E-02 -0.21133737E-08
    3    1    0.90270917E-03  0.68599070E-09  0.31844673E-03 -0.94226811E-09 -0.66717430E-03 -0.42130464E-09
    4    1   -0.16282440E-03 -0.65992554E-10  0.75539212E-03  0.68578618E-09 -0.67829827E-03  0.47152550E-09
    1    2   -0.47558800E-03  0.11260060E-08 -0.51003609E-03  0.11674453E-09  0.10942988E-02 -0.19683925E-08
    2    2    0.17149142E-09 -0.40863041E-10  0.30328605E-09 -0.13118973E-09  0.17149141E-09 -0.40863003E-10
    3    2    0.18528414E-04  0.58129038E-09  0.47248285E-04  0.13654502E-08  0.18529508E-04  0.74899836E-09
    4    2    0.76859981E-03 -0.51643031E-09 -0.53306395E-03  0.19140805E-09 -0.14989040E-03 -0.52164520E-10
    1    3    0.90023109E-03  0.96275544E-09  0.84159538E-03 -0.15350575E-09 -0.12226645E-02 -0.10551209E-08
    2    3    0.18039842E-04 -0.14529370E-09  0.14117880E-03  0.12091530E-08  0.18038858E-04  0.86995394E-09
    3    3    0.99614784E-09  0.40039522E-10  0.43101354E-09  0.12888835E-09  0.99614787E-09  0.40039585E-10
    4    3   -0.90818730E-03 -0.28474207E-09  0.58466635E-03 -0.82883952E-09  0.58575505E-03 -0.15463663E-09
    1    4   -0.67829957E-03 -0.10745258E-08  0.27393260E-03 -0.95919048E-09 -0.16282478E-03  0.16141987E-08
    2    4    0.93980307E-03  0.52969664E-09 -0.31473077E-03  0.15452709E-08 -0.55413496E-03 -0.77292413E-09
    3    4   -0.34147582E-03 -0.26734391E-09  0.34147727E-03 -0.47145466E-09  0.57701073E-03 -0.23498882E-09
    4    4    0.14032289E-09  0.29221110E-11 -0.69968959E-09 -0.14797613E-09  0.14032295E-09  0.29221090E-11

   -2   -1    2
    1    1   -0.44108625E-09  0.31435974E-09  0.32580489E-09 -0.11648556E-09  0.32580488E-09 -0.11648556E-09
    2    1   -0.66717377E-03 -0.63660330E-09 -0.31844827E-03 -0.92217420E-09  0.90270998E-03 -0.11643940E-08
    3    1    0.19786885E-04  0.23072422E-08  0.45989348E-04  0.61382689E-10  0.45989472E-04 -0.32193018E-09
    4    1   -0.66717588E-03  0.78327120E-09  0.90271087E-03  0.13643577E-09 -0.31844727E-03 -0.78972302E-10
    1    2   -0.61431495E-03  0.81760342E-09 -0.82595841E-03 -0.51877309E-09  0.12393875E-02 -0.63432853E-10
    2    2    0.42959009E-09  0.26273851E-09  0.52983684E-09 -0.21862335E-09  0.52983685E-09 -0.21862335E-09
    3    2    0.48292144E-03 -0.11584684E-09  0.73823774E-03  0.73010813E-09 -0.48291939E-03  0.91172018E-09
    4    2    0.34443236E-03 -0.19709450E-09  0.24813418E-03  0.11112407E-08 -0.74879979E-03 -0.13179326E-08
    1    3    0.66853492E-04  0.10105018E-08  0.92365737E-04  0.12872317E-08  0.92365791E-04 -0.11784695E-08
    2    3    0.74273361E-03  0.79915408E-09  0.99909171E-03  0.93757719E-09 -0.10662539E-02  0.15793248E-08
    3    3   -0.19334976E-09  0.14354095E-09  0.53380375E-09  0.61202205E-10  0.53380374E-09  0.61202220E-10
    4    3    0.74273416E-03 -0.10391035E-08 -0.10662534E-02 -0.73073775E-09  0.99909242E-03  0.44410771E-09
    1    4   -0.61431323E-03 -0.64115623E-09  0.12393877E-02 -0.12705047E-08 -0.82595922E-03  0.79915439E-09
    2    4    0.34443142E-03 -0.99206316E-11 -0.74879828E-03  0.19722738E-08  0.24813508E-03 -0.24129752E-08
    3    4    0.48292020E-03 -0.94160698E-09 -0.48292002E-03 -0.10935305E-08  0.73823805E-03 -0.43467252E-09
    4    4   -0.77809633E-10  0.10041246E-09 -0.45076602E-09 -0.67689360E-10 -0.45076602E-09 -0.67689368E-10

   -2    0    0
    1    1    0.46707805E-09 -0.25108755E-25  0.40082579E-09  0.14415620E-24  0.46707805E-09 -0.19920304E-24
    2    1    0.23266674E-02  0.66841968E-09  0.62758727E-03 -0.10910650E-08 -0.12540413E-02 -0.13624794E-08
    3    1    0.12540392E-02  0.62791006E-09  0.62758686E-03 -0.14127211E-09 -0.23266666E-02 -0.20596818E-09
    4    1    0.10260690E-01  0.61755701E-09  0.47296340E-02  0.10465122E-08 -0.10260690E-01  0.37262651E-09
    1    2   -0.12540413E-02  0.13624794E-08 -0.66512639E-03  0.72884284E-10  0.23266674E-02 -0.66841969E-09
    2    2    0.12816902E-08 -0.49414192E-16 -0.49513252E-10  0.49414192E-16  0.12816902E-08 -0.12260760E-24
    3    2   -0.72401600E-09 -0.53760255E-09 -0.12313906E-03  0.49926142E-09 -0.11853244E-08  0.48776944E-09
    4    2    0.17807485E-02  0.11497309E-08 -0.55847558E-03  0.32504154E-09 -0.70812328E-03 -0.56026244E-09
    1    3   -0.23266666E-02  0.20596818E-09 -0.66512678E-03  0.57224152E-09  0.12540392E-02 -0.62791005E-09
    2    3   -0.11853244E-08 -0.48776944E-09 -0.12313874E-03  0.24805816E-09 -0.72401601E-09  0.53760256E-09
    3    3    0.24868608E-08 -0.18812523E-24  0.70763612E-10  0.49414192E-16  0.24868608E-08  0.49414192E-16
    4    3    0.70812211E-03 -0.61206304E-09 -0.55847495E-03 -0.11169238E-08 -0.17807475E-02 -0.45904318E-09
    1    4   -0.10260690E-01 -0.37262650E-09  0.29232397E-02 -0.59436877E-09  0.10260690E-01 -0.61755701E-09
    2    4   -0.70812328E-03  0.56026243E-09  0.52093677E-03  0.14419711E-08  0.17807485E-02 -0.11497309E-08
    3    4   -0.17807475E-02  0.45904319E-09  0.52093750E-03  0.50224144E-10  0.70812211E-03  0.61206305E-09
    4    4   -0.24807904E-09 -0.49414192E-16 -0.13883354E-08 -0.19898118E-24 -0.24807912E-09  0.49414192E-16

   -2    0    1
    1    1   -0.33465698E-09  0.50790951E-09  0.20801943E-09 -0.23068818E-09  0.31043170E-10 -0.24934038E-10
    2    1   -0.23266654E-02  0.86048263E-10 -0.62758764E-03 -0.18297910E-08  0.12540402E-02 -0.12822861E-08
    3    1    0.12542799E-02  0.92077522E-09  0.57165690E-03 -0.81622219E-09 -0.86861342E-03 -0.64560227E-09
    4    1    0.61865644E-04  0.38763123E-09 -0.39476116E-03  0.82690432E-09  0.90997075E-05  0.13776642E-08
    1    2   -0.93167747E-03  0.10636746E-08 -0.20225783E-02 -0.22952456E-10  0.13272603E-02  0.71209442E-09
    2    2    0.12972530E-08  0.64700045E-09  0.10184997E-08 -0.28492737E-09  0.13729518E-08  0.32647378E-09
    3    2    0.87590325E-03 -0.71281451E-09  0.95003367E-03  0.39386784E-09 -0.93308231E-03  0.37773102E-09
    4    2   -0.32288356E-03 -0.16461262E-09 -0.10011190E-04  0.81995113E-09  0.11036909E-03 -0.19079322E-08
    1    3    0.18946979E-02  0.45248998E-09  0.19699518E-02  0.58649561E-09 -0.11782868E-02 -0.15692060E-08
    2    3    0.21229886E-02 -0.28512578E-09  0.17416597E-02  0.10777160E-08 -0.96775901E-03  0.16381820E-08
    3    3    0.77082803E-09  0.25071744E-09  0.12580694E-08  0.32852856E-09  0.14486138E-08  0.45124542E-09
    4    3   -0.13990266E-02 -0.93505392E-09 -0.99593419E-03 -0.10299451E-08  0.19023257E-02  0.44433713E-09
    1    4   -0.15767765E-02 -0.14320390E-08  0.22200712E-02 -0.14342774E-08 -0.14198694E-02  0.89263767E-09
    2    4    0.22618113E-02  0.53748355E-09 -0.16185186E-02  0.11098886E-08  0.59888027E-03 -0.19315943E-08
    3    4   -0.23161531E-02  0.70224468E-09 -0.16927412E-02  0.62741026E-09  0.19548987E-02 -0.49225547E-09
    4    4    0.35085838E-09  0.70875806E-09 -0.35728756E-09  0.67228281E-09 -0.76711742E-11  0.79934851E-09

   -2    0    2
    1    1   -0.12869996E-08 -0.25241240E-24  0.98717543E-09 -0.81212381E-25  0.98717543E-09  0.12358128E-24
[...]
    4    3    0.65777359E-04  0.78625824E-10  0.65776772E-04 -0.23303020E-09  0.85654329E-09 -0.15298114E-09
    1    4   -0.45990745E-04  0.44448783E-09 -0.19787440E-04 -0.31173374E-09  0.45989867E-04  0.53382546E-09
    2    4    0.28253659E-09 -0.42057120E-09 -0.65777526E-04  0.12729282E-08  0.65778504E-04 -0.55017356E-09
    3    4   -0.65777359E-04  0.78625825E-10 -0.65776772E-04 -0.23303019E-09 -0.85654329E-09 -0.15298113E-09
    4    4    0.16728655E-16 -0.13408786E-24  0.45180217E-16  0.14635324E-24 -0.13629005E-16 -0.21007085E-24

    2   -1   -2
    1    1   -0.44108625E-09  0.31435974E-09  0.32580489E-09 -0.11648556E-09  0.32580488E-09 -0.11648556E-09
    2    1   -0.66717377E-03 -0.63660330E-09 -0.31844827E-03 -0.92217420E-09  0.90270998E-03 -0.11643940E-08
    3    1    0.19786885E-04  0.23072422E-08  0.45989348E-04  0.61382690E-10  0.45989472E-04 -0.32193018E-09
    4    1   -0.66717588E-03  0.78327120E-09  0.90271087E-03  0.13643577E-09 -0.31844727E-03 -0.78972302E-10
    1    2   -0.61431495E-03  0.81760341E-09 -0.82595841E-03 -0.51877309E-09  0.12393875E-02 -0.63432855E-10
    2    2    0.42959009E-09  0.26273851E-09  0.52983683E-09 -0.21862335E-09  0.52983685E-09 -0.21862335E-09
    3    2    0.48292144E-03 -0.11584684E-09  0.73823774E-03  0.73010813E-09 -0.48291939E-03  0.91172018E-09
    4    2    0.34443236E-03 -0.19709451E-09  0.24813418E-03  0.11112407E-08 -0.74879979E-03 -0.13179326E-08
    1    3    0.66853492E-04  0.10105018E-08  0.92365737E-04  0.12872317E-08  0.92365791E-04 -0.11784695E-08
    2    3    0.74273361E-03  0.79915407E-09  0.99909171E-03  0.93757719E-09 -0.10662539E-02  0.15793248E-08
    3    3   -0.19334976E-09  0.14354095E-09  0.53380375E-09  0.61202205E-10  0.53380374E-09  0.61202220E-10
    4    3    0.74273416E-03 -0.10391035E-08 -0.10662534E-02 -0.73073774E-09  0.99909242E-03  0.44410771E-09
    1    4   -0.61431323E-03 -0.64115623E-09  0.12393877E-02 -0.12705047E-08 -0.82595922E-03  0.79915439E-09
    2    4    0.34443142E-03 -0.99206318E-11 -0.74879828E-03  0.19722738E-08  0.24813508E-03 -0.24129752E-08
    3    4    0.48292020E-03 -0.94160698E-09 -0.48292002E-03 -0.10935305E-08  0.73823805E-03 -0.43467252E-09
    4    4   -0.77809630E-10  0.10041246E-09 -0.45076602E-09 -0.67689360E-10 -0.45076603E-09 -0.67689368E-10

    2   -1   -1
    1    1   -0.75482063E-09 -0.12666550E-09  0.53635817E-09  0.72652838E-10  0.43487891E-09  0.56786275E-10
    2    1   -0.77737976E-03 -0.12083888E-08 -0.12868770E-02  0.16915595E-09  0.77846686E-03 -0.62095822E-09
    3    1   -0.77846841E-03  0.97731212E-09 -0.12868782E-02 -0.34298573E-09  0.77738109E-03 -0.10636016E-09
    4    1    0.48266960E-03 -0.54941309E-09  0.35119648E-02 -0.14413000E-10 -0.48266879E-03  0.59306190E-09
    1    2   -0.11352561E-02 -0.58594320E-09 -0.20129833E-02  0.61741708E-09  0.15489554E-02 -0.31669699E-09
    2    2    0.11522991E-08  0.67611330E-09  0.43567734E-10 -0.41373866E-09  0.11190486E-08 -0.15182823E-09
    3    2    0.12193620E-02  0.12182416E-08  0.19220779E-02  0.29735504E-09 -0.81830271E-03  0.95712029E-09
    4    2    0.10707227E-02  0.53127112E-09 -0.37941101E-03  0.22169243E-08  0.22129719E-02 -0.15477815E-08
    1    3   -0.15489537E-02  0.28554347E-09 -0.20129828E-02 -0.45394628E-10  0.11352551E-02  0.68366544E-09
    2    3    0.81830190E-03  0.12578657E-08  0.19220779E-02 -0.73074728E-11 -0.12193639E-02  0.12184712E-08
    3    3   -0.61419924E-09 -0.10167008E-09  0.11718282E-08 -0.17552424E-09  0.13599327E-08 -0.34383767E-09
    4    3   -0.22129723E-02 -0.22110182E-09 -0.37941294E-03 -0.19574243E-09 -0.10707231E-02 -0.32681905E-09
    1    4    0.11656741E-02  0.73727302E-09  0.18527752E-02 -0.93906050E-09 -0.11656750E-02  0.56656876E-10
    2    4    0.25813345E-03  0.22754205E-09  0.14572676E-03  0.17537633E-08  0.14573026E-03 -0.20505799E-08
    3    4   -0.14572682E-03 -0.95458483E-09  0.14572851E-03  0.18874870E-09 -0.25813448E-03 -0.40615499E-10
    4    4    0.70061901E-09  0.33051577E-09 -0.56245454E-09 -0.14733699E-09  0.25076728E-09 -0.47993207E-10

    2   -1    0
    1    1    0.12134676E-09  0.70270696E-10  0.27647469E-09  0.58276413E-11  0.61371396E-09  0.47504190E-09
    2    1   -0.21643371E-02 -0.53017044E-09 -0.98390006E-03 -0.60403032E-09  0.17255163E-02 -0.96155296E-09
    3    1    0.21331060E-02  0.15320494E-08  0.10083318E-02  0.53507819E-09 -0.91083382E-03 -0.10251736E-08
    4    1   -0.11670314E-02 -0.61258881E-09  0.18583434E-02  0.69233402E-09  0.32529501E-02 -0.14718662E-09
    1    2   -0.12018628E-02 -0.20716561E-09 -0.86239568E-03  0.45408158E-09  0.54231849E-03 -0.14005792E-08
    2    2    0.87170790E-09 -0.74050525E-10 -0.13778744E-09 -0.86865726E-10  0.10905718E-08 -0.22380288E-09
    3    2   -0.13585922E-02  0.51998384E-09 -0.70675285E-03  0.38457003E-09  0.69795971E-03  0.12720677E-09
    4    2    0.27569729E-02  0.71695718E-09  0.12376624E-02 -0.34424693E-09 -0.22333439E-03  0.91069677E-09
    1    3    0.15552831E-02  0.64962709E-09  0.11850982E-02  0.11188460E-09 -0.73406959E-03  0.22918105E-10
    2    3   -0.20697777E-02  0.30259184E-09 -0.14921600E-02 -0.52667501E-10  0.12172556E-02  0.95483010E-09
    3    3    0.66969471E-09 -0.24644068E-09 -0.83380264E-10 -0.39841680E-10  0.12604914E-08 -0.32837576E-09
    4    3    0.42296411E-03 -0.12882960E-09 -0.30153498E-02  0.77917447E-10 -0.16207425E-02 -0.26432071E-09
    1    4    0.15936883E-03  0.86659390E-09  0.24449267E-03 -0.73514079E-09 -0.88404857E-04 -0.79708060E-09
    2    4    0.16840558E-02  0.81596123E-09  0.13343926E-02  0.62174723E-09 -0.53121594E-03 -0.44131016E-09
    3    4    0.57222798E-09 -0.93089021E-09  0.12189399E-09  0.19109377E-09 -0.33289669E-03  0.12029209E-08
    4    4    0.65351518E-09 -0.20879488E-09 -0.10982733E-08  0.33216841E-10  0.86049486E-10 -0.62093247E-09

    2   -1    1
    1    1    0.10148478E-09  0.10512806E-09 -0.85774515E-10 -0.85750195E-10  0.10148478E-09  0.10512806E-09
    2    1   -0.86861266E-03  0.48643156E-09 -0.57165854E-03 -0.12638877E-08  0.12542801E-02 -0.21133737E-08
    3    1    0.90270917E-03  0.68599070E-09  0.31844673E-03 -0.94226811E-09 -0.66717430E-03 -0.42130464E-09
    4    1   -0.16282440E-03 -0.65992551E-10  0.75539212E-03  0.68578618E-09 -0.67829827E-03  0.47152550E-09
    1    2   -0.47558800E-03  0.11260060E-08 -0.51003609E-03  0.11674453E-09  0.10942988E-02 -0.19683925E-08
    2    2    0.17149142E-09 -0.40863009E-10  0.30328605E-09 -0.13118977E-09  0.17149141E-09 -0.40863003E-10
    3    2    0.18528414E-04  0.58129038E-09  0.47248285E-04  0.13654502E-08  0.18529508E-04  0.74899836E-09
    4    2    0.76859981E-03 -0.51643031E-09 -0.53306395E-03  0.19140805E-09 -0.14989040E-03 -0.52164520E-10
    1    3    0.90023109E-03  0.96275544E-09  0.84159538E-03 -0.15350575E-09 -0.12226645E-02 -0.10551209E-08
    2    3    0.18039842E-04 -0.14529370E-09  0.14117880E-03  0.12091530E-08  0.18038858E-04  0.86995394E-09
    3    3    0.99614784E-09  0.40039522E-10  0.43101355E-09  0.12888831E-09  0.99614788E-09  0.40039555E-10
    4    3   -0.90818730E-03 -0.28474207E-09  0.58466635E-03 -0.82883952E-09  0.58575505E-03 -0.15463663E-09
    1    4   -0.67829957E-03 -0.10745258E-08  0.27393260E-03 -0.95919047E-09 -0.16282478E-03  0.16141987E-08
    2    4    0.93980307E-03  0.52969664E-09 -0.31473077E-03  0.15452709E-08 -0.55413496E-03 -0.77292413E-09
    3    4   -0.34147582E-03 -0.26734391E-09  0.34147727E-03 -0.47145466E-09  0.57701073E-03 -0.23498882E-09
    4    4    0.14032288E-09  0.29221411E-11 -0.69968959E-09 -0.14797613E-09  0.14032295E-09  0.29220859E-11

    2    0   -2
    1    1   -0.12869996E-08  0.25241240E-24  0.98717543E-09  0.81212381E-25  0.98717543E-09 -0.12358128E-24
    2    1   -0.91083276E-03 -0.46748913E-09 -0.10083334E-02 -0.16433165E-09  0.21331051E-02 -0.24047637E-09
    3    1   -0.16139803E-03  0.13821041E-08  0.38258617E-04 -0.11265407E-08  0.38258515E-04 -0.72579693E-09
    4    1   -0.91083505E-03  0.18041526E-09  0.21331066E-02  0.44793924E-09 -0.10083323E-02  0.20543793E-08
    1    2    0.82114695E-03  0.30109791E-09  0.21331051E-02  0.24047637E-09 -0.10083334E-02  0.16433164E-09
    2    2    0.10854785E-08  0.11016863E-24  0.15777732E-08 -0.10689037E-24  0.15777732E-08  0.74778229E-25
    3    2    0.75488568E-03  0.22901809E-09  0.11267416E-02 -0.10451592E-08 -0.20146962E-02  0.96996948E-09
    4    2    0.32899377E-02 -0.33198988E-09  0.11700387E-01  0.16011385E-08 -0.10627389E-01 -0.16903377E-08
    1    3   -0.16139693E-03  0.13506763E-08  0.38258515E-04  0.72579693E-09  0.38258617E-04  0.11265407E-08
    2    3   -0.97709733E-03 -0.51298723E-10 -0.20146962E-02 -0.96996948E-09  0.11267416E-02  0.10451592E-08
    3    3   -0.27136563E-09  0.38402207E-24  0.17359763E-08  0.30384505E-24  0.17359762E-08  0.43321944E-24
    4    3   -0.97709530E-03 -0.61725999E-09  0.11267424E-02 -0.32089875E-09 -0.20146963E-02 -0.17447831E-08
    1    4    0.82114828E-03 -0.10036466E-08 -0.10083323E-02 -0.20543793E-08  0.21331066E-02 -0.44793923E-09
    2    4    0.32899369E-02  0.11273268E-08 -0.10627389E-01  0.16903377E-08  0.11700387E-01 -0.16011385E-08
    3    4    0.75488550E-03  0.25954816E-09 -0.20146963E-02  0.17447831E-08  0.11267424E-02  0.32089875E-09
    4    4    0.62441102E-10  0.25912027E-24 -0.82972941E-09  0.16125712E-24 -0.82972947E-09  0.24563643E-24

    2    0   -1
    1    1   -0.33465698E-09 -0.50790951E-09  0.20801943E-09  0.23068818E-09  0.31043170E-10  0.24934038E-10
    2    1    0.91083617E-03 -0.69526856E-09  0.10083332E-02 -0.67694222E-09 -0.21331077E-02  0.14767388E-09
    3    1   -0.17255179E-02  0.22679614E-08 -0.98390047E-03  0.50544042E-09  0.21643385E-02 -0.83764508E-09
    4    1   -0.32529499E-02 -0.51705156E-09  0.18583432E-02 -0.19172494E-09  0.11670320E-02  0.18585194E-08
    1    2    0.73406878E-03  0.72466269E-09  0.11850974E-02  0.55738698E-09 -0.15552820E-02  0.43667606E-09
    2    2    0.12972530E-08 -0.64700045E-09  0.10184997E-08  0.28492737E-09  0.13729518E-08 -0.32647378E-09
    3    2   -0.12172575E-02 -0.32479228E-10 -0.14921615E-02 -0.88882261E-09  0.20697761E-02 -0.69175905E-09
    4    2    0.16207419E-02  0.93495660E-09 -0.30153480E-02  0.92766146E-09 -0.42296521E-03 -0.91826073E-09
    1    3   -0.54231767E-03  0.94797939E-09 -0.86239556E-03  0.24465041E-09  0.12018616E-02  0.33506781E-10
    2    3   -0.69796164E-03  0.44328182E-10 -0.70675281E-03 -0.28623848E-09  0.13585896E-02  0.13777981E-09
    3    3    0.77082803E-09 -0.25071744E-09  0.12580694E-08 -0.32852856E-09  0.14486138E-08 -0.45124542E-09
    4    3    0.22333399E-03  0.43616230E-09  0.12376599E-02  0.97333151E-10 -0.27569714E-02 -0.83564467E-09
    1    4    0.88404164E-04 -0.59626885E-09  0.24449278E-03 -0.14005739E-08 -0.15936880E-03 -0.42903358E-09
    2    4    0.33289524E-03  0.70340039E-09 -0.96078274E-09  0.20120570E-08  0.13788231E-08 -0.16932001E-08
    3    4    0.53121739E-03 -0.92515597E-09  0.13343937E-02  0.77301935E-09 -0.16840577E-02  0.18422270E-08
    4    4    0.35085838E-09 -0.70875806E-09 -0.35728756E-09 -0.67228281E-09 -0.76711742E-11 -0.79934851E-09

    2    0    0
    1    1    0.46707805E-09  0.25108755E-25  0.40082579E-09 -0.14415620E-24  0.46707805E-09  0.19920304E-24
    2    1    0.23266674E-02  0.66841968E-09  0.62758727E-03 -0.10910650E-08 -0.12540413E-02 -0.13624794E-08
    3    1    0.12540392E-02  0.62791005E-09  0.62758686E-03 -0.14127211E-09 -0.23266666E-02 -0.20596818E-09
    4    1    0.10260690E-01  0.61755701E-09  0.47296340E-02  0.10465123E-08 -0.10260690E-01  0.37262651E-09
    1    2   -0.12540413E-02  0.13624794E-08 -0.66512639E-03  0.72884280E-10  0.23266674E-02 -0.66841967E-09
    2    2    0.12816902E-08  0.49414192E-16 -0.49513252E-10 -0.49414192E-16  0.12816902E-08  0.12260760E-24
    3    2   -0.72401600E-09 -0.53760256E-09 -0.12313906E-03  0.49926140E-09 -0.11853244E-08  0.48776944E-09
    4    2    0.17807485E-02  0.11497309E-08 -0.55847558E-03  0.32504154E-09 -0.70812328E-03 -0.56026244E-09
    1    3   -0.23266666E-02  0.20596817E-09 -0.66512678E-03  0.57224152E-09  0.12540392E-02 -0.62791005E-09
    2    3   -0.11853244E-08 -0.48776944E-09 -0.12313874E-03  0.24805815E-09 -0.72401601E-09  0.53760256E-09
    3    3    0.24868608E-08  0.18812523E-24  0.70763612E-10 -0.49414192E-16  0.24868608E-08 -0.49414192E-16
    4    3    0.70812211E-03 -0.61206304E-09 -0.55847495E-03 -0.11169238E-08 -0.17807475E-02 -0.45904320E-09
    1    4   -0.10260690E-01 -0.37262650E-09  0.29232397E-02 -0.59436876E-09  0.10260690E-01 -0.61755701E-09
    2    4   -0.70812328E-03  0.56026245E-09  0.52093677E-03  0.14419711E-08  0.17807485E-02 -0.11497309E-08
    3    4   -0.17807475E-02  0.45904319E-09  0.52093750E-03  0.50224145E-10  0.70812211E-03  0.61206303E-09
    4    4   -0.24807904E-09  0.49414192E-16 -0.13883354E-08  0.19898118E-24 -0.24807912E-09 -0.49414192E-16

    2    1   -2
    1    1   -0.44108625E-09 -0.31435974E-09  0.32580489E-09  0.11648556E-09  0.32580488E-09  0.11648556E-09
    2    1    0.77738264E-03 -0.99759843E-10  0.12868772E-02 -0.87032450E-09 -0.77846871E-03 -0.41498426E-09
    3    1    0.16139826E-03  0.18851435E-08 -0.38259699E-04  0.30178957E-09 -0.38259754E-04 -0.21639117E-08
    4    1    0.77738068E-03  0.24820973E-09 -0.77846853E-03 -0.27573329E-09  0.12868784E-02  0.17939258E-08
    1    2    0.26344936E-03 -0.41859249E-09  0.72217286E-03 -0.46241347E-09 -0.49898539E-03 -0.70463328E-09
    2    2    0.42959009E-09 -0.26273851E-09  0.52983684E-09  0.21862335E-09  0.52983685E-09  0.21862335E-09
    3    2   -0.46734790E-03  0.64070847E-09 -0.13585920E-02 -0.77547215E-09  0.70675361E-03 -0.13372454E-09
    4    2    0.83153246E-03 -0.23293875E-09  0.60215768E-03  0.20909707E-08 -0.39477568E-03 -0.22942784E-08
    1    3    0.47769461E-04  0.18393717E-08 -0.19049697E-04  0.51989856E-09 -0.19049822E-04  0.13658569E-09
    2    3   -0.70827885E-03 -0.74825042E-11 -0.89605543E-03  0.24521359E-09  0.32510170E-03  0.42682563E-09
    3    3   -0.19334976E-09 -0.14354095E-09  0.53380375E-09 -0.61202205E-10  0.53380374E-09 -0.61202220E-10
    4    3   -0.70827686E-03 -0.60571618E-09  0.32510273E-03 -0.11933891E-08 -0.89605534E-03 -0.53453107E-09
    1    4    0.26345065E-03  0.55195234E-09 -0.49898550E-03 -0.48572111E-09  0.72217264E-03 -0.70112916E-09
    2    4    0.83153250E-03  0.54774071E-09 -0.39477584E-03  0.10430462E-08  0.60215813E-03 -0.13861271E-08
    3    4   -0.46734720E-03 -0.97085316E-09  0.70675402E-03  0.44047989E-09 -0.13585919E-02  0.16153253E-08
    4    4   -0.77809633E-10 -0.10041246E-09 -0.45076602E-09  0.67689360E-10 -0.45076602E-09  0.67689368E-10

    2    1   -1
    1    1    0.10148478E-09 -0.10512806E-09 -0.85774515E-10  0.85750195E-10  0.10148478E-09 -0.10512806E-09
    2    1    0.66717586E-03  0.11346971E-08  0.31844878E-03 -0.43983846E-09 -0.90271091E-03 -0.19597014E-08
    3    1   -0.12542818E-02  0.12239269E-08 -0.57165948E-03  0.11443214E-09  0.86861375E-03 -0.79394937E-09
    4    1    0.67829904E-03 -0.11668053E-08  0.75539205E-03  0.92388282E-10  0.16282424E-03  0.15219192E-08
    1    2    0.12226629E-02  0.97040209E-09  0.84159500E-03 -0.60274380E-09 -0.90022982E-03 -0.16294032E-08
    2    2    0.17149142E-09  0.40863041E-10  0.30328605E-09  0.13118973E-09  0.17149141E-09  0.40863003E-10
    3    2   -0.18041326E-04 -0.84842639E-09  0.14117866E-03  0.26169946E-09 -0.18040342E-04  0.16682125E-09
    4    2   -0.58575254E-03  0.13694653E-09  0.58466728E-03  0.13579199E-08  0.90818549E-03 -0.11656742E-08
    1    3   -0.10942971E-02  0.82373306E-09 -0.51003485E-03 -0.52410864E-09  0.47558633E-03 -0.28356228E-09
    2    3   -0.18528830E-04  0.10011030E-09  0.47248294E-04  0.10245293E-08 -0.18529924E-04  0.26781827E-09
    3    3    0.99614784E-09 -0.40039522E-10  0.43101354E-09 -0.12888835E-09  0.99614787E-09 -0.40039585E-10
    4    3    0.14988854E-03 -0.19898601E-09 -0.53306421E-03 -0.64806445E-09 -0.76859802E-03 -0.16663092E-09
    1    4    0.16282467E-03 -0.26428733E-09  0.27393242E-03 -0.11703088E-09  0.67829854E-03  0.27323071E-09
    2    4   -0.57701252E-03 -0.10135652E-08  0.34147640E-03  0.75768065E-09  0.34147768E-03 -0.54929939E-09
    3    4    0.55413714E-03  0.61413358E-09 -0.31472925E-03 -0.29256944E-09 -0.93980522E-03  0.74423903E-09
    4    4    0.14032289E-09 -0.29221110E-11 -0.69968959E-09  0.14797613E-09  0.14032295E-09 -0.29221090E-11

    2    2   -2
    1    1   -0.23647905E-17  0.99452105E-25 -0.97968538E-18 -0.47654839E-25 -0.27049401E-17 -0.13274319E-24
    2    1    0.45990243E-04  0.90660448E-09 -0.45989887E-04 -0.95870276E-09  0.19785865E-04 -0.26143109E-08
    3    1   -0.19786656E-04  0.17523934E-08 -0.45992397E-04 -0.34076694E-09 -0.45990842E-04 -0.86890331E-09
    4    1    0.45990745E-04  0.44448782E-09  0.19787440E-04 -0.31173374E-09 -0.45989867E-04  0.53382545E-09
    1    2   -0.45990243E-04  0.90660447E-09  0.45989887E-04 -0.95870276E-09 -0.19785865E-04 -0.26143109E-08
    2    2    0.95409791E-17  0.13406126E-24  0.95409791E-17 -0.35120121E-24  0.42067044E-16 -0.81277271E-25
    3    2   -0.65777840E-04 -0.36341245E-09  0.63244430E-09  0.80264115E-09 -0.65777098E-04  0.11716551E-08
    4    2   -0.28253659E-09 -0.42057120E-09  0.65777526E-04  0.12729281E-08 -0.65778504E-04 -0.55017355E-09
    1    3    0.19786656E-04  0.17523934E-08  0.45992397E-04 -0.34076695E-09  0.45990842E-04 -0.86890331E-09
    2    3    0.65777840E-04 -0.36341245E-09 -0.63244430E-09  0.80264114E-09  0.65777098E-04  0.11716551E-08
    3    3    0.10658593E-16  0.58757468E-25 -0.18898530E-16 -0.58531130E-25 -0.21000110E-16 -0.11924208E-24
    4    3    0.65777359E-04  0.78625826E-10  0.65776772E-04 -0.23303020E-09  0.85654328E-09 -0.15298114E-09
    1    4   -0.45990745E-04  0.44448783E-09 -0.19787440E-04 -0.31173374E-09  0.45989867E-04  0.53382546E-09
    2    4    0.28253659E-09 -0.42057120E-09 -0.65777526E-04  0.12729282E-08  0.65778504E-04 -0.55017356E-09
    3    4   -0.65777359E-04  0.78625822E-10 -0.65776772E-04 -0.23303019E-09 -0.85654329E-09 -0.15298113E-09
    4    4    0.16728655E-16  0.25766802E-24  0.45180217E-16 -0.13958384E-25 -0.13629005E-16  0.86490681E-25

    3   -1   -1
    1    1   -0.14702161E-08 -0.71920292E-10  0.84331753E-09  0.36028767E-10  0.86287471E-09  0.19901290E-09
    2    1    0.96461167E-03 -0.99206076E-09 -0.96461073E-03 -0.39801706E-09  0.19336464E-02 -0.13540872E-08
    3    1   -0.19336478E-02  0.11664998E-08 -0.96461231E-03  0.16782647E-09 -0.96461164E-03  0.26286393E-09
    4    1    0.96460825E-03 -0.65514730E-09  0.19336493E-02 -0.14818362E-09 -0.96460864E-03  0.12091732E-08
    1    2   -0.15074013E-03 -0.12049053E-09  0.15073992E-03  0.62460356E-10  0.14677368E-02 -0.76673440E-09
    2    2    0.69979410E-09  0.67238728E-09  0.72716205E-09  0.60103874E-10  0.12205637E-08 -0.21300011E-09
    3    2   -0.12171108E-02  0.18997954E-08 -0.16811462E-02  0.94222340E-09 -0.36414849E-03  0.10710798E-08
    4    2    0.16811470E-02 -0.65577863E-10  0.12171115E-02  0.30717713E-09 -0.36415053E-03  0.56394712E-10
    1    3   -0.14677365E-02  0.68432501E-09  0.15074010E-03 -0.38393467E-09  0.15074033E-03 -0.69554928E-10
    2    3    0.36414811E-03 -0.14459145E-09 -0.16811464E-02  0.26272422E-09  0.12171108E-02  0.10930779E-08
    3    3   -0.10064459E-08 -0.11759196E-09  0.81731690E-09  0.14810581E-09  0.11475565E-08 -0.49665464E-09
    4    3    0.36415035E-03  0.10579462E-08  0.12171105E-02  0.39122296E-09 -0.16811464E-02 -0.39500109E-09
    1    4   -0.15074008E-03  0.14009559E-09  0.14677373E-02 -0.37392067E-09  0.15073972E-03  0.33802430E-09
    2    4    0.16811465E-02  0.53741701E-10 -0.36414893E-03  0.80519153E-09  0.12171122E-02 -0.29696895E-09
    3    4   -0.12171094E-02 -0.74090595E-09 -0.36414826E-03 -0.22372752E-09 -0.16811472E-02  0.56492554E-09
    4    4    0.84038402E-10 -0.15418034E-09 -0.78374111E-09  0.87561664E-10  0.49301459E-09 -0.84813266E-09
