 
             +---------------------------------------------------+
             |                                                   |
             |                   WANNIER90                       |
             |                                                   |
             +---------------------------------------------------+
             |                                                   |
             |        Welcome to the Maximally-Localized         |
             |        Generalized Wannier Functions code         |
             |            http://www.wannier.org                 |
             |                                                   |
             |                                                   |
             |  Wannier90 Developer Group:                       |
             |    Giovanni Pizzi    (EPFL)                       |
             |    Valerio Vitale    (Cambridge)                  |
             |    David Vanderbilt  (Rutgers University)         |
             |    Nicola Marzari    (EPFL)                       |
             |    Ivo Souza         (Universidad del Pais Vasco) |
             |    Arash A. Mostofi  (Imperial College London)    |
             |    Jonathan R. Yates (University of Oxford)       |
             |                                                   |
             |  For the full list of Wannier90 3.x authors,      |
             |  please check the code documentation and the      |
             |  README on the GitHub page of the code            |
             |                                                   |
             |                                                   |
             |  Please cite                                      |
             |                                                   |
             |  [ref] "Wannier90 as a community code:            |
             |        new features and applications",            |
             |        G. Pizzi et al., J. Phys. Cond. Matt. 32,  |
             |        165902 (2020).                             |
             |        http://doi.org/10.1088/1361-648X/ab51ff    |
             |                                                   |
             |  in any publications arising from the use of      |
             |  this code. For the method please cite            |
             |                                                   |
             |  [ref] "Maximally Localized Generalised Wannier   |
             |         Functions for Composite Energy Bands"     |
             |         N. Marzari and D. Vanderbilt              |
             |         Phys. Rev. B 56 12847 (1997)              |
             |                                                   |
             |  [ref] "Maximally Localized Wannier Functions     |
             |         for Entangled Energy Bands"               |
             |         I. Souza, N. Marzari and D. Vanderbilt    |
             |         Phys. Rev. B 65 035109 (2001)             |
             |                                                   |
             |                                                   |
             | Copyright (c) 1996-2020                           |
             |        The Wannier90 Developer Group and          |
             |        individual contributors                    |
             |                                                   |
             |      Release: 3.0.0       27th February 2019      |
             |                                                   |
             | This program is free software; you can            |
             | redistribute it and/or modify it under the terms  |
             | of the GNU General Public License as published by |
             | the Free Software Foundation; either version 2 of |
             | the License, or (at your option) any later version|
             |                                                   |
             | This program is distributed in the hope that it   |
             | will be useful, but WITHOUT ANY WARRANTY; without |
             | even the implied warranty of MERCHANTABILITY or   |
             | FITNESS FOR A PARTICULAR PURPOSE. See the GNU     |
             | General Public License for more details.          |
             |                                                   |
             | You should have received a copy of the GNU General|
             | Public License along with this program; if not,   |
             | write to the Free Software Foundation, Inc.,      |
             | 675 Mass Ave, Cambridge, MA 02139, USA.           |
             |                                                   |
             +---------------------------------------------------+
             |    Execution started on 20Feb2020 at 09:45:47     |
             +---------------------------------------------------+
 
 ******************************************************************************
 * -> Using CODATA 2006 constant values                                       *
 *    (http://physics.nist.gov/cuu/Constants/index.html)                      *
 * -> Using Bohr value from CODATA                                            *
 ******************************************************************************
 

 Running in serial (with parallel executable)
 
                                    ------
                                    SYSTEM
                                    ------
 
                              Lattice Vectors (Ang)
                    a_1     1.484435   1.484435   1.484435
                    a_2    -1.484435   1.484435   1.484435
                    a_3    -1.484435  -1.484435   1.484435
 
                   Unit Cell Volume:      13.08410  (Ang^3)
 
                        Reciprocal-Space Vectors (Ang^-1)
                    b_1     2.116355   0.000000   2.116355
                    b_2    -2.116355   2.116355   0.000000
                    b_3     0.000000  -2.116355   2.116355
  
 *----------------------------------------------------------------------------*
 |   Site       Fractional Coordinate          Cartesian Coordinate (Ang)     |
 +----------------------------------------------------------------------------+
 | S    1   0.00000   0.00000   0.00000   |    0.00000   0.00000   0.00000    |
 | H    1   0.50000  -0.50000   0.00000   |    1.48444   0.00000   0.00000    |
 | H    2   0.00000   0.50000  -0.50000   |    0.00000   1.48444   0.00000    |
 | H    3   0.50000   0.00000   0.50000   |    0.00000   0.00000   1.48444    |
 *----------------------------------------------------------------------------*
                                ------------
                                K-POINT GRID
                                ------------
  
             Grid size =  8 x  8 x  8      Total points =  512
  
  
 *---------------------------------- MAIN ------------------------------------*
 |  Number of Wannier Functions               :                12             |
 |  Number of Objective Wannier Functions     :                12             |
 |  Number of input Bloch states              :                20             |
 |  Output verbosity (1=low, 5=high)          :                 1             |
 |  Timing Level (1=low, 5=high)              :                 1             |
 |  Optimisation (0=memory, 3=speed)          :                 3             |
 |  Length Unit                               :               Ang             |
 |  Post-processing setup (write *.nnkp)      :                 F             |
 |  Using Gamma-only branch of algorithms     :                 F             |
 |  Using symmetry-adapted WF mode            :                 T             |
 |  Tolerance for symmetry condition on U     :         0.100E-07             |
 *----------------------------------------------------------------------------*
 *------------------------------- WANNIERISE ---------------------------------*
 |  Total number of iterations                :               500             |
 |  Number of CG steps before reset           :                 5             |
 |  Trial step length for line search         :             2.000             |
 |  Convergence tolerence                     :         0.100E-09             |
 |  Convergence window                        :                -1             |
 |  Iterations between writing output         :                50             |
 |  Iterations between backing up to disk     :               100             |
 |  Write r^2_nm to file                      :                 F             |
 |  Write xyz WF centres to file              :                 F             |
 |  Write on-site energies <0n|H|0n> to file  :                 F             |
 |  Use guiding centre to control phases      :                 F             |
 |  Use phases for initial projections        :                 F             |
 *----------------------------------------------------------------------------*
 *------------------------------- DISENTANGLE --------------------------------*
 |  Using band disentanglement                :                 T             |
 |  Total number of iterations                :               200             |
 |  Mixing ratio                              :             0.200             |
 |  Convergence tolerence                     :         1.000E-10             |
 |  Convergence window                        :                 3             |
 *----------------------------------------------------------------------------*
 Time to read parameters        0.036 (sec)

 *---------------------------------- K-MESH ----------------------------------*
 +----------------------------------------------------------------------------+
 |                    Distance to Nearest-Neighbour Shells                    |
 |                    ------------------------------------                    |
 |          Shell             Distance (Ang^-1)          Multiplicity         |
 |          -----             -----------------          ------------         |
 |             1                   0.374122                     12            |
 |             2                   0.529089                      6            |
 |             3                   0.647999                     24            |
 |             4                   0.748245                     12            |
 |             5                   0.836563                     24            |
 |             6                   0.916409                      8            |
 |             7                   0.989835                     48            |
 |             8                   1.058178                      6            |
 |             9                   1.122367                     36            |
 |            10                   1.183079                     24            |
 |            11                   1.240823                     24            |
 |            12                   1.295998                     24            |
 |            13                   1.348917                     72            |
 |            14                   1.448969                     48            |
 |            15                   1.496489                     12            |
 |            16                   1.542546                     48            |
 |            17                   1.587267                     30            |
 |            18                   1.630761                     72            |
 |            19                   1.673126                     24            |
 |            20                   1.714444                     48            |
 |            21                   1.754789                     24            |
 |            22                   1.794228                     48            |
 |            23                   1.832817                      8            |
 |            24                   1.870612                     84            |
 |            25                   1.907657                     24            |
 |            26                   1.943997                     96            |
 |            27                   1.979669                     48            |
 |            28                   2.014710                     24            |
 |            29                   2.083025                     96            |
 |            30                   2.116355                      6            |
 |            31                   2.149169                     96            |
 |            32                   2.181489                     48            |
 |            33                   2.213337                     48            |
 |            34                   2.244734                     36            |
 |            35                   2.275697                    120            |
 |            36                   2.306245                     24            |
 +----------------------------------------------------------------------------+
 | The b-vectors are chosen automatically                                     |
 | The following shells are used:   1                                         |
 +----------------------------------------------------------------------------+
 |                        Shell   # Nearest-Neighbours                        |
 |                        -----   --------------------                        |
 |                          1              12                                 |
 +----------------------------------------------------------------------------+
 | Completeness relation is fully satisfied [Eq. (B1), PRB 56, 12847 (1997)]  |
 +----------------------------------------------------------------------------+
 |                  b_k Vectors (Ang^-1) and Weights (Ang^2)                  |
 |                  ----------------------------------------                  |
 |            No.         b_k(x)      b_k(y)      b_k(z)        w_b           |
 |            ---        --------------------------------     --------        |
 |             1        -0.264544    0.264544    0.000000     1.786129        |
 |             2         0.264544    0.000000    0.264544     1.786129        |
 |             3         0.000000    0.264544    0.264544     1.786129        |
 |             4         0.000000   -0.264544    0.264544     1.786129        |
 |             5        -0.264544    0.000000    0.264544     1.786129        |
 |             6         0.000000    0.264544   -0.264544     1.786129        |
 |             7         0.264544    0.264544    0.000000     1.786129        |
 |             8         0.264544   -0.264544    0.000000     1.786129        |
 |             9         0.264544    0.000000   -0.264544     1.786129        |
 |            10        -0.264544    0.000000   -0.264544     1.786129        |
 |            11        -0.264544   -0.264544    0.000000     1.786129        |
 |            12         0.000000   -0.264544   -0.264544     1.786129        |
 +----------------------------------------------------------------------------+
 |                           b_k Directions (Ang^-1)                          |
 |                           -----------------------                          |
 |            No.           x           y           z                         |
 |            ---        --------------------------------                     |
 |             1        -0.264544    0.264544    0.000000                     |
 |             2         0.264544    0.000000    0.264544                     |
 |             3         0.000000    0.264544    0.264544                     |
 |             4         0.000000   -0.264544    0.264544                     |
 |             5        -0.264544    0.000000    0.264544                     |
 |             6         0.264544    0.264544    0.000000                     |
 +----------------------------------------------------------------------------+
  
 Time to get kmesh              0.660 (sec)
 *============================================================================*
 |                              MEMORY ESTIMATE                               |
 |         Maximum RAM allocated during each phase of the calculation         |
 *============================================================================*
 |                        Disentanglement           56.41 Mb                  |
 |                            Wannierise:           36.57 Mb                  |
 |                          plot_wannier:           36.57 Mb                  |
 *----------------------------------------------------------------------------*
  
 Starting a new Wannier90 calculation ...


 Reading overlaps from H3S.mmn    :  Created on 18Feb2020 at 19:30: 7

 Reading projections from H3S.amn :  Created on 18Feb2020 at 19:29:40

 Time to read overlaps          1.932 (sec)

 *------------------------------- DISENTANGLE --------------------------------*
 +----------------------------------------------------------------------------+
 |                              Energy  Windows                               |
 |                              ---------------                               |
 |                   Outer: -100.00000  to   95.00000  (eV)                   |
 |                   No frozen states were specified                          |
 +----------------------------------------------------------------------------+
   Number of target bands to extract:   12

                   Unitarised projection of Wannier functions                  
                   ------------------------------------------                  
   A_mn = <psi_m|g_n> --> S = A.A^+ --> U = S^-1/2.A
   In dis_project... done
   No inner window (linner = F)

                   Extraction of optimally-connected subspace                  
                   ------------------------------------------                  
 +---------------------------------------------------------------------+<-- DIS
 |  Iter     Omega_I(i-1)      Omega_I(i)      Delta (frac.)    Time   |<-- DIS
 +---------------------------------------------------------------------+<-- DIS
       1       6.50330689       5.83286046       1.149E-01      0.00    <-- DIS
       2       6.36582608       5.76743835       1.038E-01      0.99    <-- DIS
       3       6.24321840       5.71080808       9.323E-02      1.97    <-- DIS
       4       6.13418498       5.66140726       8.351E-02      2.93    <-- DIS
       5       6.03739154       5.61800505       7.465E-02      3.88    <-- DIS
       6       5.95153829       5.57962596       6.666E-02      4.83    <-- DIS
       7       5.87540016       5.54548309       5.949E-02      5.76    <-- DIS
       8       5.80784863       5.51494333       5.311E-02      6.69    <-- DIS
       9       5.74785934       5.48748490       4.745E-02      7.62    <-- DIS
      10       5.69451367       5.46267899       4.244E-02      8.56    <-- DIS
      11       5.64699480       5.44016958       3.802E-02      9.49    <-- DIS
      12       5.60458117       5.41966000       3.412E-02     10.42    <-- DIS
      13       5.56663862       5.40089902       3.069E-02     11.36    <-- DIS
      14       5.53261172       5.38367623       2.766E-02     12.29    <-- DIS
      15       5.50201561       5.36781182       2.500E-02     13.22    <-- DIS
      16       5.47442784       5.35315240       2.265E-02     14.15    <-- DIS
      17       5.44948091       5.33956615       2.058E-02     15.08    <-- DIS
      18       5.42685541       5.32693956       1.876E-02     16.02    <-- DIS
      19       5.40627388       5.31517418       1.714E-02     16.94    <-- DIS
      20       5.38749537       5.30418459       1.571E-02     17.87    <-- DIS
      21       5.37031056       5.29389593       1.443E-02     18.83    <-- DIS
      22       5.35453750       5.28424284       1.330E-02     19.77    <-- DIS
      23       5.34001803       5.27516788       1.229E-02     20.67    <-- DIS
      24       5.32661442       5.26662008       1.139E-02     21.57    <-- DIS
      25       5.31420646       5.25855366       1.058E-02     22.46    <-- DIS
      26       5.30268956       5.25093035       9.857E-03     23.35    <-- DIS
      27       5.29197211       5.24371331       9.203E-03     24.24    <-- DIS
      28       5.28197385       5.23687085       8.613E-03     25.13    <-- DIS
      29       5.27262440       5.23037477       8.078E-03     26.02    <-- DIS
      30       5.26386192       5.22419877       7.592E-03     26.91    <-- DIS
      31       5.25563189       5.21832026       7.150E-03     27.80    <-- DIS
      32       5.24788623       5.21271801       6.747E-03     28.70    <-- DIS
      33       5.24058235       5.20737331       6.377E-03     29.59    <-- DIS
      34       5.23368252       5.20226887       6.038E-03     30.50    <-- DIS
      35       5.22715320       5.19738925       5.727E-03     31.39    <-- DIS
      36       5.22096449       5.19271993       5.439E-03     32.29    <-- DIS
      37       5.21508969       5.18824807       5.174E-03     33.19    <-- DIS
      38       5.20950490       5.18396180       4.927E-03     34.09    <-- DIS
      39       5.20418866       5.17984988       4.699E-03     34.99    <-- DIS
      40       5.19912163       5.17590256       4.486E-03     35.88    <-- DIS
      41       5.19428642       5.17211054       4.288E-03     36.77    <-- DIS
      42       5.18966728       5.16846504       4.102E-03     37.66    <-- DIS
      43       5.18524992       5.16495859       3.929E-03     38.55    <-- DIS
      44       5.18102139       5.16158352       3.766E-03     39.44    <-- DIS
      45       5.17696987       5.15833315       3.613E-03     40.33    <-- DIS
      46       5.17308458       5.15520129       3.469E-03     41.21    <-- DIS
      47       5.16935567       5.15218192       3.333E-03     42.11    <-- DIS
      48       5.16577409       5.14926969       3.205E-03     42.99    <-- DIS
      49       5.16233154       5.14645946       3.084E-03     43.88    <-- DIS
      50       5.15902037       5.14374651       2.969E-03     44.77    <-- DIS
      51       5.15583354       5.14112626       2.861E-03     45.66    <-- DIS
      52       5.15276451       5.13859469       2.758E-03     46.55    <-- DIS
      53       5.14980725       5.13614785       2.659E-03     47.44    <-- DIS
      54       5.14695617       5.13378208       2.566E-03     48.33    <-- DIS
      55       5.14420607       5.13149375       2.477E-03     49.22    <-- DIS
      56       5.14155207       5.12927971       2.393E-03     50.12    <-- DIS
      57       5.13898967       5.12713697       2.312E-03     51.01    <-- DIS
      58       5.13651454       5.12506191       2.235E-03     51.89    <-- DIS
      59       5.13412288       5.12305313       2.161E-03     52.78    <-- DIS
      60       5.13181096       5.12110717       2.090E-03     53.67    <-- DIS
      61       5.12957529       5.11922173       2.022E-03     54.55    <-- DIS
      62       5.12741261       5.11739458       1.958E-03     55.44    <-- DIS
      63       5.12531984       5.11562321       1.895E-03     56.32    <-- DIS
      64       5.12329409       5.11390580       1.836E-03     57.20    <-- DIS
      65       5.12133262       5.11224034       1.779E-03     58.09    <-- DIS
      66       5.11943287       5.11062475       1.723E-03     58.97    <-- DIS
      67       5.11759238       5.10905735       1.671E-03     59.86    <-- DIS
      68       5.11580885       5.10753628       1.620E-03     60.74    <-- DIS
      69       5.11408009       5.10606019       1.571E-03     61.63    <-- DIS
      70       5.11240402       5.10462720       1.523E-03     62.52    <-- DIS
      71       5.11077868       5.10323605       1.478E-03     63.40    <-- DIS
      72       5.10920221       5.10188506       1.434E-03     64.28    <-- DIS
      73       5.10767280       5.10057310       1.392E-03     65.17    <-- DIS
      74       5.10618877       5.09929869       1.351E-03     66.05    <-- DIS
      75       5.10474850       5.09806058       1.312E-03     66.93    <-- DIS
      76       5.10335044       5.09685774       1.274E-03     67.82    <-- DIS
      77       5.10199313       5.09568889       1.237E-03     68.70    <-- DIS
      78       5.10067516       5.09455283       1.202E-03     69.59    <-- DIS
      79       5.09939519       5.09344859       1.168E-03     70.48    <-- DIS
      80       5.09815192       5.09237526       1.134E-03     71.36    <-- DIS
      81       5.09694414       5.09133174       1.102E-03     72.24    <-- DIS
      82       5.09577066       5.09031704       1.071E-03     73.13    <-- DIS
      83       5.09463035       5.08933037       1.041E-03     74.01    <-- DIS
      84       5.09352213       5.08837076       1.012E-03     74.90    <-- DIS
      85       5.09244495       5.08743744       9.843E-04     75.78    <-- DIS
      86       5.09139784       5.08652956       9.571E-04     76.67    <-- DIS
      87       5.09037981       5.08564629       9.308E-04     77.55    <-- DIS
      88       5.08938994       5.08478709       9.052E-04     78.44    <-- DIS
      89       5.08842737       5.08395106       8.805E-04     79.32    <-- DIS
      90       5.08749124       5.08313748       8.565E-04     80.21    <-- DIS
      91       5.08658072       5.08234573       8.333E-04     81.10    <-- DIS
      92       5.08569503       5.08157519       8.107E-04     81.98    <-- DIS
      93       5.08483340       5.08082514       7.889E-04     82.86    <-- DIS
      94       5.08399509       5.08009520       7.677E-04     83.75    <-- DIS
      95       5.08317942       5.07938447       7.471E-04     84.63    <-- DIS
      96       5.08238570       5.07869262       7.272E-04     85.52    <-- DIS
      97       5.08161327       5.07801899       7.078E-04     86.40    <-- DIS
      98       5.08086148       5.07736312       6.890E-04     87.28    <-- DIS
      99       5.08012975       5.07672443       6.708E-04     88.16    <-- DIS
     100       5.07941747       5.07610246       6.531E-04     89.04    <-- DIS
     101       5.07872406       5.07549673       6.359E-04     89.93    <-- DIS
     102       5.07804899       5.07490682       6.192E-04     90.81    <-- DIS
     103       5.07739172       5.07433224       6.029E-04     91.70    <-- DIS
     104       5.07675174       5.07377251       5.872E-04     92.58    <-- DIS
     105       5.07612854       5.07322727       5.719E-04     93.46    <-- DIS
     106       5.07552164       5.07269609       5.570E-04     94.35    <-- DIS
     107       5.07493058       5.07217853       5.426E-04     95.24    <-- DIS
     108       5.07435489       5.07167444       5.285E-04     96.12    <-- DIS
     109       5.07379416       5.07118320       5.149E-04     97.00    <-- DIS
     110       5.07324797       5.07070451       5.016E-04     97.88    <-- DIS
     111       5.07271589       5.07023812       4.887E-04     98.77    <-- DIS
     112       5.07219755       5.06978353       4.762E-04     99.65    <-- DIS
     113       5.07169254       5.06934054       4.640E-04    100.53    <-- DIS
     114       5.07120050       5.06890881       4.521E-04    101.41    <-- DIS
     115       5.07072107       5.06848801       4.406E-04    102.30    <-- DIS
     116       5.07025390       5.06807785       4.294E-04    103.19    <-- DIS
     117       5.06979866       5.06767808       4.185E-04    104.07    <-- DIS
     118       5.06935502       5.06728833       4.078E-04    104.96    <-- DIS
     119       5.06892265       5.06690837       3.975E-04    105.85    <-- DIS
     120       5.06850124       5.06653801       3.875E-04    106.73    <-- DIS
     121       5.06809051       5.06617690       3.777E-04    107.61    <-- DIS
     122       5.06769016       5.06582484       3.682E-04    108.50    <-- DIS
     123       5.06729991       5.06548156       3.590E-04    109.38    <-- DIS
     124       5.06691948       5.06514683       3.500E-04    110.26    <-- DIS
     125       5.06654861       5.06482046       3.412E-04    111.14    <-- DIS
     126       5.06618705       5.06450219       3.327E-04    112.03    <-- DIS
     127       5.06583455       5.06419179       3.244E-04    112.91    <-- DIS
     128       5.06549085       5.06388911       3.163E-04    113.79    <-- DIS
     129       5.06515573       5.06359385       3.085E-04    114.67    <-- DIS
     130       5.06482896       5.06330596       3.008E-04    115.55    <-- DIS
     131       5.06451031       5.06302513       2.933E-04    116.44    <-- DIS
     132       5.06419958       5.06275167       2.860E-04    117.32    <-- DIS
     133       5.06389660       5.06248414       2.790E-04    118.21    <-- DIS
     134       5.06360108       5.06222352       2.721E-04    119.09    <-- DIS
     135       5.06331286       5.06196925       2.654E-04    119.97    <-- DIS
     136       5.06303174       5.06172123       2.589E-04    120.86    <-- DIS
     137       5.06275755       5.06147924       2.526E-04    121.74    <-- DIS
     138       5.06249010       5.06124321       2.464E-04    122.63    <-- DIS
     139       5.06222921       5.06101286       2.403E-04    123.51    <-- DIS
     140       5.06197472       5.06078812       2.345E-04    124.40    <-- DIS
     141       5.06172646       5.06056888       2.287E-04    125.28    <-- DIS
     142       5.06148426       5.06035493       2.232E-04    126.16    <-- DIS
     143       5.06124798       5.06014616       2.177E-04    127.04    <-- DIS
     144       5.06101745       5.05994243       2.125E-04    127.92    <-- DIS
     145       5.06079253       5.05974363       2.073E-04    128.82    <-- DIS
     146       5.06057307       5.05954956       2.023E-04    129.70    <-- DIS
     147       5.06035893       5.05936025       1.974E-04    130.58    <-- DIS
     148       5.06014998       5.05917550       1.926E-04    131.47    <-- DIS
     149       5.05994610       5.05899513       1.880E-04    132.35    <-- DIS
     150       5.05974713       5.05881910       1.834E-04    133.24    <-- DIS
     151       5.05955296       5.05864728       1.790E-04    134.12    <-- DIS
     152       5.05936347       5.05847960       1.747E-04    135.00    <-- DIS
     153       5.05917855       5.05831590       1.705E-04    135.89    <-- DIS
     154       5.05899806       5.05815608       1.665E-04    136.77    <-- DIS
     155       5.05882190       5.05800010       1.625E-04    137.65    <-- DIS
     156       5.05864996       5.05784781       1.586E-04    138.53    <-- DIS
     157       5.05848214       5.05769917       1.548E-04    139.41    <-- DIS
     158       5.05831833       5.05755405       1.511E-04    140.29    <-- DIS
     159       5.05815842       5.05741234       1.475E-04    141.17    <-- DIS
     160       5.05800233       5.05727399       1.440E-04    142.05    <-- DIS
     161       5.05784995       5.05713892       1.406E-04    142.94    <-- DIS
     162       5.05770119       5.05700701       1.373E-04    143.83    <-- DIS
     163       5.05755596       5.05687827       1.340E-04    144.71    <-- DIS
     164       5.05741418       5.05675251       1.308E-04    145.60    <-- DIS
     165       5.05727575       5.05662971       1.278E-04    146.49    <-- DIS
     166       5.05714060       5.05650982       1.247E-04    147.37    <-- DIS
     167       5.05700864       5.05639273       1.218E-04    148.26    <-- DIS
     168       5.05687979       5.05627839       1.189E-04    149.14    <-- DIS
     169       5.05675397       5.05616672       1.161E-04    150.03    <-- DIS
     170       5.05663112       5.05605766       1.134E-04    150.93    <-- DIS
     171       5.05651115       5.05595113       1.108E-04    151.82    <-- DIS
     172       5.05639400       5.05584713       1.082E-04    152.71    <-- DIS
     173       5.05627959       5.05574549       1.056E-04    153.60    <-- DIS
     174       5.05616786       5.05564626       1.032E-04    154.50    <-- DIS
     175       5.05605875       5.05554933       1.008E-04    155.39    <-- DIS
     176       5.05595219       5.05545465       9.842E-05    156.27    <-- DIS
     177       5.05584811       5.05536216       9.613E-05    157.15    <-- DIS
     178       5.05574646       5.05527181       9.389E-05    158.04    <-- DIS
     179       5.05564717       5.05518355       9.171E-05    158.93    <-- DIS
     180       5.05555019       5.05509733       8.959E-05    159.82    <-- DIS
     181       5.05545546       5.05501311       8.751E-05    160.70    <-- DIS
     182       5.05536293       5.05493082       8.548E-05    161.59    <-- DIS
     183       5.05527255       5.05485041       8.351E-05    162.48    <-- DIS
     184       5.05518425       5.05477187       8.158E-05    163.37    <-- DIS
     185       5.05509800       5.05469514       7.970E-05    164.26    <-- DIS
     186       5.05501374       5.05462015       7.787E-05    165.15    <-- DIS
     187       5.05493142       5.05454690       7.607E-05    166.04    <-- DIS
     188       5.05485099       5.05447531       7.433E-05    166.93    <-- DIS
     189       5.05477242       5.05440537       7.262E-05    167.83    <-- DIS
     190       5.05469565       5.05433702       7.096E-05    168.71    <-- DIS
     191       5.05462065       5.05427024       6.933E-05    169.61    <-- DIS
     192       5.05454737       5.05420497       6.774E-05    170.50    <-- DIS
     193       5.05447576       5.05414119       6.620E-05    171.38    <-- DIS
     194       5.05440579       5.05407885       6.469E-05    172.28    <-- DIS
     195       5.05433742       5.05401795       6.321E-05    173.17    <-- DIS
     196       5.05427061       5.05395845       6.177E-05    174.05    <-- DIS
     197       5.05420533       5.05390024       6.037E-05    174.94    <-- DIS
     198       5.05414154       5.05384337       5.900E-05    175.83    <-- DIS
     199       5.05407919       5.05378781       5.766E-05    176.71    <-- DIS
     200       5.05401826       5.05373347       5.635E-05    177.60    <-- DIS

     <<< Warning: Maximum number of disentanglement iterations reached >>>
          <<< Disentanglement convergence criteria not satisfied >>>

        Final Omega_I     5.05373347 (Ang^2)

 +----------------------------------------------------------------------------+

 Time to disentangle bands    178.788 (sec)

 Writing checkpoint file H3S.chk... done

 
 *------------------------------- WANNIERISE ---------------------------------*
 +--------------------------------------------------------------------+<-- CONV
 | Iter  Delta Spread     RMS Gradient      Spread (Ang^2)      Time  |<-- CONV
 +--------------------------------------------------------------------+<-- CONV
 
 ------------------------------------------------------------------------------
 Initial State
  WF centre and spread    1  (  0.000000, -0.000000,  0.000000 )     0.78400047
  WF centre and spread    2  ( -0.000000, -0.000000, -0.000000 )     0.80236905
  WF centre and spread    3  (  0.000000,  0.000000,  0.000000 )     0.80236918
  WF centre and spread    4  (  0.000000, -0.000000, -0.000000 )     0.80236885
  WF centre and spread    5  ( -0.000000, -0.000000,  0.000000 )     0.98476090
  WF centre and spread    6  (  0.000000, -0.000000,  0.000000 )     0.97751982
  WF centre and spread    7  (  0.000000, -0.000000, -0.000000 )     0.97751974
  WF centre and spread    8  ( -0.000000,  0.000000,  0.000000 )     0.98476083
  WF centre and spread    9  ( -0.000000,  0.000000, -0.000000 )     0.97752004
  WF centre and spread   10  (  1.484435,  0.000000,  0.000000 )     0.53915329
  WF centre and spread   11  ( -0.000000,  1.484435, -0.000000 )     0.53915328
  WF centre and spread   12  ( -0.000000, -0.000000,  1.484435 )     0.53915329
  Sum of centres and spreads (  1.484435,  1.484435,  1.484435 )     9.71064875
 
      0     0.971E+01     0.0000000000        9.7106487479     178.12  <-- CONV
        O_D=      0.0000000 O_OD=      4.6569153 O_TOT=      9.7106487 <-- SPRD
 ------------------------------------------------------------------------------
 Cycle:      1
  WF centre and spread    1  (  0.000000, -0.000000,  0.000000 )     0.76631995
  WF centre and spread    2  ( -0.000000, -0.000000, -0.000000 )     0.79386683
  WF centre and spread    3  (  0.000000,  0.000000,  0.000000 )     0.79386696
  WF centre and spread    4  (  0.000000, -0.000000, -0.000000 )     0.79386664
  WF centre and spread    5  ( -0.000000, -0.000000,  0.000000 )     0.98909078
  WF centre and spread    6  (  0.000000, -0.000000,  0.000000 )     0.97553690
  WF centre and spread    7  (  0.000000, -0.000000, -0.000000 )     0.97553682
  WF centre and spread    8  ( -0.000000,  0.000000,  0.000000 )     0.98909070
  WF centre and spread    9  ( -0.000000,  0.000000, -0.000000 )     0.97553713
  WF centre and spread   10  (  1.484435,  0.000000,  0.000000 )     0.51748918
  WF centre and spread   11  ( -0.000000,  1.484435, -0.000000 )     0.51748917
  WF centre and spread   12  ( -0.000000, -0.000000,  1.484435 )     0.51748917
  Sum of centres and spreads (  1.484435,  1.484435,  1.484435 )     9.60518024
 
      1    -0.105E+00     0.6888044168        9.6051802447     178.21  <-- CONV
        O_D=      0.0000000 O_OD=      4.5514468 O_TOT=      9.6051802 <-- SPRD
 Delta: O_D= -0.1214881E-12 O_OD= -0.1054685E+00 O_TOT= -0.1054685E+00 <-- DLTA
 ------------------------------------------------------------------------------
 Cycle:     50
  WF centre and spread    1  (  0.000000, -0.000000,  0.000000 )     0.66553536
  WF centre and spread    2  ( -0.000000, -0.000000, -0.000000 )     0.76740490
  WF centre and spread    3  (  0.000000,  0.000000,  0.000000 )     0.76740503
  WF centre and spread    4  (  0.000000, -0.000000, -0.000000 )     0.76740472
  WF centre and spread    5  ( -0.000000, -0.000000,  0.000000 )     1.04427317
  WF centre and spread    6  (  0.000000, -0.000000,  0.000000 )     0.97204627
  WF centre and spread    7  (  0.000000, -0.000000, -0.000000 )     0.97204619
  WF centre and spread    8  ( -0.000000,  0.000000,  0.000000 )     1.04427308
  WF centre and spread    9  ( -0.000000,  0.000000, -0.000000 )     0.97204649
  WF centre and spread   10  (  1.484435,  0.000000,  0.000000 )     0.41017884
  WF centre and spread   11  (  0.000000,  1.484435, -0.000000 )     0.41017882
  WF centre and spread   12  ( -0.000000, -0.000000,  1.484435 )     0.41017883
  Sum of centres and spreads (  1.484435,  1.484435,  1.484435 )     9.20297170
 
     50    -0.338E-05     0.0040270719        9.2029716954     182.52  <-- CONV
        O_D=      0.0000000 O_OD=      4.1492382 O_TOT=      9.2029717 <-- SPRD
 Delta: O_D=  0.7126817E-15 O_OD= -0.3379577E-05 O_TOT= -0.3379577E-05 <-- DLTA
 ------------------------------------------------------------------------------
 Cycle:    100
  WF centre and spread    1  (  0.000000, -0.000000,  0.000000 )     0.66541919
  WF centre and spread    2  ( -0.000000, -0.000000, -0.000000 )     0.76730825
  WF centre and spread    3  (  0.000000,  0.000000,  0.000000 )     0.76730838
  WF centre and spread    4  (  0.000000, -0.000000, -0.000000 )     0.76730807
  WF centre and spread    5  ( -0.000000, -0.000000,  0.000000 )     1.04408132
  WF centre and spread    6  (  0.000000, -0.000000,  0.000000 )     0.97204619
  WF centre and spread    7  (  0.000000, -0.000000, -0.000000 )     0.97204611
  WF centre and spread    8  ( -0.000000,  0.000000,  0.000000 )     1.04408123
  WF centre and spread    9  ( -0.000000,  0.000000, -0.000000 )     0.97204641
  WF centre and spread   10  (  1.484435,  0.000000,  0.000000 )     0.41043714
  WF centre and spread   11  (  0.000000,  1.484435, -0.000000 )     0.41043712
  WF centre and spread   12  ( -0.000000, -0.000000,  1.484435 )     0.41043713
  Sum of centres and spreads (  1.484435,  1.484435,  1.484435 )     9.20295653
 
    100    -0.218E-09     0.0001194824        9.2029565167     186.85  <-- CONV
        O_D=      0.0000000 O_OD=      4.1492230 O_TOT=      9.2029565 <-- SPRD
 Delta: O_D= -0.9782040E-19 O_OD= -0.2178826E-09 O_TOT= -0.2178808E-09 <-- DLTA
 ------------------------------------------------------------------------------

 Writing checkpoint file H3S.chk... done

 Cycle:    150
  WF centre and spread    1  (  0.000000, -0.000000,  0.000000 )     0.66541850
  WF centre and spread    2  ( -0.000000, -0.000000, -0.000000 )     0.76730739
  WF centre and spread    3  (  0.000000,  0.000000,  0.000000 )     0.76730752
  WF centre and spread    4  (  0.000000, -0.000000, -0.000000 )     0.76730721
  WF centre and spread    5  ( -0.000000, -0.000000,  0.000000 )     1.04407816
  WF centre and spread    6  (  0.000000, -0.000000,  0.000000 )     0.97204624
  WF centre and spread    7  (  0.000000, -0.000000, -0.000000 )     0.97204616
  WF centre and spread    8  ( -0.000000,  0.000000,  0.000000 )     1.04407807
  WF centre and spread    9  ( -0.000000,  0.000000, -0.000000 )     0.97204647
  WF centre and spread   10  (  1.484435,  0.000000,  0.000000 )     0.41044028
  WF centre and spread   11  (  0.000000,  1.484435, -0.000000 )     0.41044026
  WF centre and spread   12  ( -0.000000, -0.000000,  1.484435 )     0.41044027
  Sum of centres and spreads (  1.484435,  1.484435,  1.484435 )     9.20295654
 
    150    -0.242E-10     0.0000175263        9.2029565122     189.80  <-- CONV
        O_D=      0.0000000 O_OD=      4.1492230 O_TOT=      9.2029565 <-- SPRD
 Delta: O_D=  0.3917438E-20 O_OD= -0.2417000E-10 O_TOT= -0.2417089E-10 <-- DLTA
 ------------------------------------------------------------------------------
 Cycle:    200
  WF centre and spread    1  (  0.000000, -0.000000,  0.000000 )     0.66541818
  WF centre and spread    2  ( -0.000000, -0.000000, -0.000000 )     0.76730704
  WF centre and spread    3  (  0.000000,  0.000000,  0.000000 )     0.76730717
  WF centre and spread    4  (  0.000000, -0.000000, -0.000000 )     0.76730686
  WF centre and spread    5  ( -0.000000, -0.000000,  0.000000 )     1.04407662
  WF centre and spread    6  (  0.000000, -0.000000,  0.000000 )     0.97204625
  WF centre and spread    7  (  0.000000, -0.000000, -0.000000 )     0.97204617
  WF centre and spread    8  ( -0.000000,  0.000000,  0.000000 )     1.04407654
  WF centre and spread    9  ( -0.000000,  0.000000, -0.000000 )     0.97204647
  WF centre and spread   10  (  1.484435,  0.000000,  0.000000 )     0.41044176
  WF centre and spread   11  (  0.000000,  1.484435, -0.000000 )     0.41044175
  WF centre and spread   12  ( -0.000000, -0.000000,  1.484435 )     0.41044175
  Sum of centres and spreads (  1.484435,  1.484435,  1.484435 )     9.20295654
 
    200    -0.239E-10     0.0000125407        9.2029565108     192.54  <-- CONV
        O_D=      0.0000000 O_OD=      4.1492230 O_TOT=      9.2029565 <-- SPRD
 Delta: O_D=  0.7158478E-20 O_OD= -0.2390532E-10 O_TOT= -0.2390443E-10 <-- DLTA
 ------------------------------------------------------------------------------

 Writing checkpoint file H3S.chk... done

 Cycle:    250
  WF centre and spread    1  (  0.000000, -0.000000,  0.000000 )     0.66541795
  WF centre and spread    2  ( -0.000000, -0.000000, -0.000000 )     0.76730678
  WF centre and spread    3  (  0.000000,  0.000000,  0.000000 )     0.76730690
  WF centre and spread    4  (  0.000000, -0.000000, -0.000000 )     0.76730659
  WF centre and spread    5  ( -0.000000, -0.000000,  0.000000 )     1.04407544
  WF centre and spread    6  (  0.000000, -0.000000,  0.000000 )     0.97204625
  WF centre and spread    7  (  0.000000, -0.000000, -0.000000 )     0.97204617
  WF centre and spread    8  ( -0.000000,  0.000000,  0.000000 )     1.04407536
  WF centre and spread    9  ( -0.000000,  0.000000, -0.000000 )     0.97204647
  WF centre and spread   10  (  1.484435,  0.000000,  0.000000 )     0.41044289
  WF centre and spread   11  (  0.000000,  1.484435, -0.000000 )     0.41044288
  WF centre and spread   12  ( -0.000000, -0.000000,  1.484435 )     0.41044288
  Sum of centres and spreads (  1.484435,  1.484435,  1.484435 )     9.20295655
 
    250    -0.222E-10     0.0000096246        9.2029565098     195.61  <-- CONV
        O_D=      0.0000000 O_OD=      4.1492230 O_TOT=      9.2029565 <-- SPRD
 Delta: O_D=  0.9616663E-20 O_OD= -0.2215472E-10 O_TOT= -0.2215472E-10 <-- DLTA
 ------------------------------------------------------------------------------
 Cycle:    300
  WF centre and spread    1  (  0.000000, -0.000000,  0.000000 )     0.66541778
  WF centre and spread    2  ( -0.000000, -0.000000, -0.000000 )     0.76730659
  WF centre and spread    3  (  0.000000,  0.000000,  0.000000 )     0.76730671
  WF centre and spread    4  (  0.000000, -0.000000, -0.000000 )     0.76730640
  WF centre and spread    5  ( -0.000000, -0.000000,  0.000000 )     1.04407460
  WF centre and spread    6  (  0.000000, -0.000000,  0.000000 )     0.97204625
  WF centre and spread    7  (  0.000000, -0.000000, -0.000000 )     0.97204617
  WF centre and spread    8  ( -0.000000,  0.000000,  0.000000 )     1.04407451
  WF centre and spread    9  ( -0.000000,  0.000000, -0.000000 )     0.97204647
  WF centre and spread   10  (  1.484435,  0.000000,  0.000000 )     0.41044370
  WF centre and spread   11  (  0.000000,  1.484435, -0.000000 )     0.41044369
  WF centre and spread   12  ( -0.000000, -0.000000,  1.484435 )     0.41044369
  Sum of centres and spreads (  1.484435,  1.484435,  1.484435 )     9.20295656
 
    300    -0.124E-10     0.0000070893        9.2029565091     198.36  <-- CONV
        O_D=      0.0000000 O_OD=      4.1492230 O_TOT=      9.2029565 <-- SPRD
 Delta: O_D=  0.2917339E-20 O_OD= -0.1236256E-10 O_TOT= -0.1236167E-10 <-- DLTA
 ------------------------------------------------------------------------------

 Writing checkpoint file H3S.chk... done

 Cycle:    350
  WF centre and spread    1  (  0.000000, -0.000000,  0.000000 )     0.66541766
  WF centre and spread    2  ( -0.000000, -0.000000, -0.000000 )     0.76730644
  WF centre and spread    3  (  0.000000,  0.000000,  0.000000 )     0.76730657
  WF centre and spread    4  (  0.000000, -0.000000, -0.000000 )     0.76730626
  WF centre and spread    5  ( -0.000000, -0.000000,  0.000000 )     1.04407396
  WF centre and spread    6  (  0.000000, -0.000000,  0.000000 )     0.97204625
  WF centre and spread    7  (  0.000000, -0.000000, -0.000000 )     0.97204617
  WF centre and spread    8  ( -0.000000,  0.000000,  0.000000 )     1.04407387
  WF centre and spread    9  ( -0.000000,  0.000000, -0.000000 )     0.97204647
  WF centre and spread   10  (  1.484435,  0.000000,  0.000000 )     0.41044432
  WF centre and spread   11  (  0.000000,  1.484435, -0.000000 )     0.41044430
  WF centre and spread   12  ( -0.000000, -0.000000,  1.484435 )     0.41044431
  Sum of centres and spreads (  1.484435,  1.484435,  1.484435 )     9.20295657
 
    350    -0.124E-10     0.0000050971        9.2029565084     201.27  <-- CONV
        O_D=      0.0000000 O_OD=      4.1492230 O_TOT=      9.2029565 <-- SPRD
 Delta: O_D=  0.3958599E-20 O_OD= -0.1244427E-10 O_TOT= -0.1244516E-10 <-- DLTA
 ------------------------------------------------------------------------------
 Cycle:    400
  WF centre and spread    1  (  0.000000, -0.000000,  0.000000 )     0.66541757
  WF centre and spread    2  ( -0.000000, -0.000000, -0.000000 )     0.76730633
  WF centre and spread    3  (  0.000000,  0.000000,  0.000000 )     0.76730646
  WF centre and spread    4  (  0.000000, -0.000000, -0.000000 )     0.76730615
  WF centre and spread    5  ( -0.000000, -0.000000,  0.000000 )     1.04407347
  WF centre and spread    6  (  0.000000, -0.000000,  0.000000 )     0.97204625
  WF centre and spread    7  (  0.000000, -0.000000, -0.000000 )     0.97204617
  WF centre and spread    8  ( -0.000000,  0.000000,  0.000000 )     1.04407338
  WF centre and spread    9  ( -0.000000,  0.000000, -0.000000 )     0.97204647
  WF centre and spread   10  (  1.484435,  0.000000,  0.000000 )     0.41044479
  WF centre and spread   11  (  0.000000,  1.484435, -0.000000 )     0.41044477
  WF centre and spread   12  ( -0.000000, -0.000000,  1.484435 )     0.41044478
  Sum of centres and spreads (  1.484435,  1.484435,  1.484435 )     9.20295658
 
    400    -0.121E-10     0.0000039098        9.2029565078     204.02  <-- CONV
        O_D=      0.0000000 O_OD=      4.1492230 O_TOT=      9.2029565 <-- SPRD
 Delta: O_D=  0.4262449E-20 O_OD= -0.1214229E-10 O_TOT= -0.1214140E-10 <-- DLTA
 ------------------------------------------------------------------------------

 Writing checkpoint file H3S.chk... done

 Cycle:    450
  WF centre and spread    1  (  0.000000, -0.000000,  0.000000 )     0.66541750
  WF centre and spread    2  ( -0.000000, -0.000000, -0.000000 )     0.76730626
  WF centre and spread    3  (  0.000000,  0.000000,  0.000000 )     0.76730638
  WF centre and spread    4  (  0.000000, -0.000000, -0.000000 )     0.76730607
  WF centre and spread    5  ( -0.000000, -0.000000,  0.000000 )     1.04407312
  WF centre and spread    6  (  0.000000, -0.000000,  0.000000 )     0.97204625
  WF centre and spread    7  (  0.000000, -0.000000, -0.000000 )     0.97204617
  WF centre and spread    8  ( -0.000000,  0.000000,  0.000000 )     1.04407303
  WF centre and spread    9  ( -0.000000,  0.000000, -0.000000 )     0.97204647
  WF centre and spread   10  (  1.484435,  0.000000,  0.000000 )     0.41044512
  WF centre and spread   11  (  0.000000,  1.484435, -0.000000 )     0.41044510
  WF centre and spread   12  ( -0.000000, -0.000000,  1.484435 )     0.41044511
  Sum of centres and spreads (  1.484435,  1.484435,  1.484435 )     9.20295658
 
    450    -0.106E-10     0.0000028827        9.2029565073     206.85  <-- CONV
        O_D=      0.0000000 O_OD=      4.1492230 O_TOT=      9.2029565 <-- SPRD
 Delta: O_D=  0.7618859E-21 O_OD= -0.1059863E-10 O_TOT= -0.1059774E-10 <-- DLTA
 ------------------------------------------------------------------------------
 Cycle:    500
  WF centre and spread    1  (  0.000000, -0.000000,  0.000000 )     0.66541745
  WF centre and spread    2  ( -0.000000, -0.000000, -0.000000 )     0.76730620
  WF centre and spread    3  (  0.000000,  0.000000,  0.000000 )     0.76730632
  WF centre and spread    4  (  0.000000, -0.000000, -0.000000 )     0.76730601
  WF centre and spread    5  ( -0.000000, -0.000000,  0.000000 )     1.04407286
  WF centre and spread    6  (  0.000000, -0.000000,  0.000000 )     0.97204625
  WF centre and spread    7  (  0.000000, -0.000000, -0.000000 )     0.97204617
  WF centre and spread    8  ( -0.000000,  0.000000,  0.000000 )     1.04407277
  WF centre and spread    9  ( -0.000000,  0.000000, -0.000000 )     0.97204647
  WF centre and spread   10  (  1.484435,  0.000000,  0.000000 )     0.41044537
  WF centre and spread   11  (  0.000000,  1.484435, -0.000000 )     0.41044535
  WF centre and spread   12  ( -0.000000, -0.000000,  1.484435 )     0.41044536
  Sum of centres and spreads (  1.484435,  1.484435,  1.484435 )     9.20295659
 
    500    -0.106E-10     0.0000020747        9.2029565067     209.62  <-- CONV
        O_D=      0.0000000 O_OD=      4.1492230 O_TOT=      9.2029565 <-- SPRD
 Delta: O_D=  0.1265702E-20 O_OD= -0.1057820E-10 O_TOT= -0.1057998E-10 <-- DLTA
 ------------------------------------------------------------------------------

 Writing checkpoint file H3S.chk... done

 Final State
  WF centre and spread    1  (  0.000000, -0.000000,  0.000000 )     0.66541745
  WF centre and spread    2  ( -0.000000, -0.000000, -0.000000 )     0.76730620
  WF centre and spread    3  (  0.000000,  0.000000,  0.000000 )     0.76730632
  WF centre and spread    4  (  0.000000, -0.000000, -0.000000 )     0.76730601
  WF centre and spread    5  ( -0.000000, -0.000000,  0.000000 )     1.04407286
  WF centre and spread    6  (  0.000000, -0.000000,  0.000000 )     0.97204625
  WF centre and spread    7  (  0.000000, -0.000000, -0.000000 )     0.97204617
  WF centre and spread    8  ( -0.000000,  0.000000,  0.000000 )     1.04407277
  WF centre and spread    9  ( -0.000000,  0.000000, -0.000000 )     0.97204647
  WF centre and spread   10  (  1.484435,  0.000000,  0.000000 )     0.41044537
  WF centre and spread   11  (  0.000000,  1.484435, -0.000000 )     0.41044535
  WF centre and spread   12  ( -0.000000, -0.000000,  1.484435 )     0.41044536
  Sum of centres and spreads (  1.484435,  1.484435,  1.484435 )     9.20295659
 
         Spreads (Ang^2)       Omega I      =     5.053733472
        ================       Omega D      =     0.000000000
                               Omega OD     =     4.149223035
    Final Spread (Ang^2)       Omega Total  =     9.202956507
 ------------------------------------------------------------------------------
 Time for wannierise           31.112 (sec)

 Writing checkpoint file H3S.chk... done

 Time for plotting              0.000 (sec)
 Total Execution Time         212.604 (sec)

 *===========================================================================*
 |                             TIMING INFORMATION                            |
 *===========================================================================*
 |    Tag                                                Ncalls      Time (s)|
 |---------------------------------------------------------------------------|
 |kmesh: get                                        :         1         0.660|
 |overlap: allocate                                 :         1         0.000|
 |overlap: read                                     :         1         1.472|
 |dis: main                                         :         1       178.788|
 |wann: main                                        :         1        31.112|
 |plot: main                                        :         1         0.000|
 *---------------------------------------------------------------------------*
 
 All done: wannier90 exiting
