 
             +---------------------------------------------------+
             |                                                   |
             |                   WANNIER90                       |
             |                                                   |
             +---------------------------------------------------+
             |                                                   |
             |        Welcome to the Maximally-Localized         |
             |        Generalized Wannier Functions code         |
             |            http://www.wannier.org                 |
             |                                                   |
             |  Wannier90 v2.x Authors:                          |
             |    Arash A. Mostofi  (Imperial College London)    |
             |    Giovanni Pizzi    (EPFL)                       |
             |    Ivo Souza         (Universidad del Pais Vasco) |
             |    Jonathan R. Yates (University of Oxford)       |
             |                                                   |
             |  Wannier90 Contributors:                          |
             |    Young-Su Lee       (KIST, S. Korea)            |
             |    Matthew Shelley    (Imperial College London)   |
             |    Nicolas Poilvert   (Penn State University)     |
             |    Raffaello Bianco   (Paris 6 and CNRS)          |
             |    Gabriele Sclauzero (ETH Zurich)                |
             |    David Strubbe (MIT, USA)                       |
             |    Rei Sakuma (Lund University, Sweden)           |
             |    Yusuke Nomura (U. Tokyo, Japan)                |
             |    Takashi Koretsune (Riken, Japan)               |
             |    Lorenzo Paulatto (UPMC Paris)                  |
             |    Florian Thole (ETH Zurich)                     |
             |    Pablo Garcia Fernandez (Unican, Spain)         |
             |    Dominik Gresch (ETH Zurich)                    |
             |    Samuel Ponce (Univerisity of Oxford)           |
             |    Marco Gibertini (EPFL)                         |
             |    Christian Stieger (ETHZ, CH)                   |
             |    Stepan Tsirkin (Universidad del Pais Vasco)    |
             |                                                   |
             |  Wannier77 Authors:                               |
             |    Nicola Marzari    (EPFL)                       |
             |    Ivo Souza         (Universidad del Pais Vasco) |
             |    David Vanderbilt  (Rutgers University)         |
             |                                                   |
             |  Please cite                                      |
             |                                                   |
             |  [ref] "An updated version of Wannier90:          |
             |        A Tool for Obtaining Maximally Localised   |
             |        Wannier Functions", A. A. Mostofi,         |
             |        J. R. Yates, G. Pizzi, Y. S. Lee,          |
             |        I. Souza, D. Vanderbilt and N. Marzari,    |
             |        Comput. Phys. Commun. 185, 2309 (2014)     |
             |        http://dx.doi.org/10.1016/j.cpc.2014.05.003|
             |                                                   |
             |  in any publications arising from the use of      |
             |  this code. For the method please cite            |
             |                                                   |
             |  [ref] "Maximally Localized Generalised Wannier   |
             |         Functions for Composite Energy Bands"     |
             |         N. Marzari and D. Vanderbilt              |
             |         Phys. Rev. B 56 12847 (1997)              |
             |                                                   |
             |  [ref] "Maximally Localized Wannier Functions     |
             |         for Entangled Energy Bands"               |
             |         I. Souza, N. Marzari and D. Vanderbilt    |
             |         Phys. Rev. B 65 035109 (2001)             |
             |                                                   |
             |                                                   |
             | Copyright (c) 1996-2017                           |
             |        Arash A. Mostofi, Jonathan R. Yates,       |
             |        Young-Su Lee, Giovanni Pizzi, Ivo Souza,   |
             |        David Vanderbilt and Nicola Marzari        |
             |                                                   |
             |        Release: 2.1.0   13th January 2017         |
             |                                                   |
             | This program is free software; you can            |
             | redistribute it and/or modify it under the terms  |
             | of the GNU General Public License as published by |
             | the Free Software Foundation; either version 2 of |
             | the License, or (at your option) any later version|
             |                                                   |
             | This program is distributed in the hope that it   |
             | will be useful, but WITHOUT ANY WARRANTY; without |
             | even the implied warranty of MERCHANTABILITY or   |
             | FITNESS FOR A PARTICULAR PURPOSE. See the GNU     |
             | General Public License for more details.          |
             |                                                   |
             | You should have received a copy of the GNU General|
             | Public License along with this program; if not,   |
             | write to the Free Software Foundation, Inc.,      |
             | 675 Mass Ave, Cambridge, MA 02139, USA.           |
             |                                                   |
             +---------------------------------------------------+
             |    Execution started on 20Dec2016 at 22:12:45     |
             +---------------------------------------------------+
 
 ******************************************************************************
 * -> Using CODATA 2006 constant values                                       *
 *    (http://physics.nist.gov/cuu/Constants/index.html)                      *
 * -> Using Bohr value from CODATA                                            *
 ******************************************************************************
 
 
                                    ------
                                    SYSTEM
                                    ------
 
                              Lattice Vectors (Ang)
                    a_1    -2.825806   0.000000   2.825806
                    a_2     0.000000   2.825806   2.825806
                    a_3    -2.825806   2.825806   0.000000
 
                   Unit Cell Volume:      45.12915  (Ang^3)
 
                        Reciprocal-Space Vectors (Ang^-1)
                    b_1    -1.111751  -1.111751   1.111751
                    b_2     1.111751   1.111751   1.111751
                    b_3    -1.111751   1.111751  -1.111751
  
 *----------------------------------------------------------------------------*
 |   Site       Fractional Coordinate          Cartesian Coordinate (Ang)     |
 +----------------------------------------------------------------------------+
 | Ga   1   0.00000   0.00000   0.00000   |    0.00000   0.00000   0.00000    |
 | As   1   0.25000   0.25000   0.25000   |   -1.41290   1.41290   1.41290    |
 *----------------------------------------------------------------------------*
  
                                ------------
                                K-POINT GRID
                                ------------
  
             Grid size =  4 x  4 x  4      Total points =   64
  
  
 *---------------------------------- MAIN ------------------------------------*
 |  Number of Wannier Functions               :                 4             |
 |  Number of input Bloch states              :                 4             |
 |  Output verbosity (1=low, 5=high)          :                 1             |
 |  Timing Level (1=low, 5=high)              :                 1             |
 |  Optimisation (0=memory, 3=speed)          :                 3             |
 |  Length Unit                               :               Ang             |
 |  Post-processing setup (write *.nnkp)      :                 F             |
 |  Using Gamma-only branch of algorithms     :                 F             |
 |  Using symmetry-adapted WF mode            :                 T             |
 |  Tolerance for symmetry condition on U     :         0.100E-08             |
 *----------------------------------------------------------------------------*
 *------------------------------- WANNIERISE ---------------------------------*
 |  Total number of iterations                :               100             |
 |  Number of CG steps before reset           :                 5             |
 |  Trial step length for line search         :             2.000             |
 |  Convergence tolerence                     :         0.100E-09             |
 |  Convergence window                        :                -1             |
 |  Iterations between writing output         :                 1             |
 |  Iterations between backing up to disk     :               100             |
 |  Write r^2_nm to file                      :                 F             |
 |  Write xyz WF centres to file              :                 F             |
 |  Write on-site energies <0n|H|0n> to file  :                 F             |
 |  Use guiding centre to control phases      :                 F             |
 |  Use phases for initial projections        :                 F             |
 *----------------------------------------------------------------------------*
 Time to read parameters        0.008 (sec)

 *---------------------------------- K-MESH ----------------------------------*
 +----------------------------------------------------------------------------+
 |                    Distance to Nearest-Neighbour Shells                    |
 |                    ------------------------------------                    |
 |          Shell             Distance (Ang^-1)          Multiplicity         |
 |          -----             -----------------          ------------         |
 |             1                   0.481402                      8            |
 |             2                   0.555875                      6            |
 |             3                   0.786127                     12            |
 |             4                   0.921815                     24            |
 |             5                   0.962805                      8            |
 |             6                   1.111751                      6            |
 |             7                   1.211502                     24            |
 |             8                   1.242975                     24            |
 |             9                   1.361611                     24            |
 |            10                   1.444207                     32            |
 |            11                   1.572253                     12            |
 |            12                   1.644302                     48            |
 +----------------------------------------------------------------------------+
 | The b-vectors are chosen automatically                                     |
 | The following shells are used:   1                                         |
 +----------------------------------------------------------------------------+
 |                        Shell   # Nearest-Neighbours                        |
 |                        -----   --------------------                        |
 |                          1               8                                 |
 +----------------------------------------------------------------------------+
 | Completeness relation is fully satisfied [Eq. (B1), PRB 56, 12847 (1997)]  |
 +----------------------------------------------------------------------------+
 |                  b_k Vectors (Ang^-1) and Weights (Ang^2)                  |
 |                  ----------------------------------------                  |
 |            No.         b_k(x)      b_k(y)      b_k(z)        w_b           |
 |            ---        --------------------------------     --------        |
 |             1        -0.277938   -0.277938    0.277938     1.618136        |
 |             2         0.277938    0.277938    0.277938     1.618136        |
 |             3        -0.277938    0.277938   -0.277938     1.618136        |
 |             4        -0.277938    0.277938    0.277938     1.618136        |
 |             5         0.277938   -0.277938    0.277938     1.618136        |
 |             6        -0.277938   -0.277938   -0.277938     1.618136        |
 |             7         0.277938    0.277938   -0.277938     1.618136        |
 |             8         0.277938   -0.277938   -0.277938     1.618136        |
 +----------------------------------------------------------------------------+
 |                           b_k Directions (Ang^-1)                          |
 |                           -----------------------                          |
 |            No.           x           y           z                         |
 |            ---        --------------------------------                     |
 |             1        -0.277938   -0.277938    0.277938                     |
 |             2         0.277938    0.277938    0.277938                     |
 |             3        -0.277938    0.277938   -0.277938                     |
 |             4        -0.277938    0.277938    0.277938                     |
 +----------------------------------------------------------------------------+
  
 *============================================================================*
 |                              MEMORY ESTIMATE                               |
 |         Maximum RAM allocated during each phase of the calculation         |
 *============================================================================*
 |                            Wannierise:            0.42 Mb                  |
 |                          plot_wannier:            0.42 Mb                  |
 *----------------------------------------------------------------------------*
  
 Starting a new Wannier90 calculation ...

 Time to get kmesh              0.031 (sec)

 Reading overlaps from GaAs.mmn    :  Created on 20Dec2016 at 17:38:33

 Reading projections from GaAs.amn :  Created on 20Dec2016 at 17:38:28

 Time to read overlaps          0.020 (sec)

 Writing checkpoint file GaAs.chk... done

 
 *------------------------------- WANNIERISE ---------------------------------*
 +--------------------------------------------------------------------+<-- CONV
 | Iter  Delta Spread     RMS Gradient      Spread (Ang^2)      Time  |<-- CONV
 +--------------------------------------------------------------------+<-- CONV
 
 ------------------------------------------------------------------------------
 Initial State
  WF centre and spread    1  ( -1.412903,  1.412903,  1.412903 )     1.64917159
  WF centre and spread    2  ( -1.412903,  1.412903,  1.412903 )     2.85541273
  WF centre and spread    3  ( -1.412903,  1.412903,  1.412903 )     2.85541273
  WF centre and spread    4  ( -1.412903,  1.412903,  1.412903 )     2.85541273
  Sum of centres and spreads ( -5.651613,  5.651613,  5.651613 )    10.21540978
 
      0     0.102E+02     0.0000000000       10.2154097765       0.06  <-- CONV
        O_D=      0.0253522 O_OD=      3.6837929 O_TOT=     10.2154098 <-- SPRD
 ------------------------------------------------------------------------------
 Cycle:      1
  WF centre and spread    1  ( -1.412903,  1.412903,  1.412903 )     1.64333838
  WF centre and spread    2  ( -1.412903,  1.412903,  1.412903 )     2.84058205
  WF centre and spread    3  ( -1.412903,  1.412903,  1.412903 )     2.84058205
  WF centre and spread    4  ( -1.412903,  1.412903,  1.412903 )     2.84058205
  Sum of centres and spreads ( -5.651613,  5.651613,  5.651613 )    10.16508453
 
      1    -0.503E-01     0.7188023620       10.1650845259       0.06  <-- CONV
        O_D=      0.0214009 O_OD=      3.6374189 O_TOT=     10.1650845 <-- SPRD
 Delta: O_D= -0.3951250E-02 O_OD= -0.4637400E-01 O_TOT= -0.5032525E-01 <-- DLTA
 ------------------------------------------------------------------------------
 Cycle:      2
  WF centre and spread    1  ( -1.412903,  1.412903,  1.412903 )     1.63844920
  WF centre and spread    2  ( -1.412903,  1.412903,  1.412903 )     2.83513074
  WF centre and spread    3  ( -1.412903,  1.412903,  1.412903 )     2.83513074
  WF centre and spread    4  ( -1.412903,  1.412903,  1.412903 )     2.83513074
  Sum of centres and spreads ( -5.651613,  5.651613,  5.651613 )    10.14384142
 
      2    -0.212E-01     0.3964615667       10.1438414226       0.07  <-- CONV
        O_D=      0.0178610 O_OD=      3.6197157 O_TOT=     10.1438414 <-- SPRD
 Delta: O_D= -0.3539882E-02 O_OD= -0.1770322E-01 O_TOT= -0.2124310E-01 <-- DLTA
 ------------------------------------------------------------------------------
 Cycle:      3
  WF centre and spread    1  ( -1.412903,  1.412903,  1.412903 )     1.63706379
  WF centre and spread    2  ( -1.412903,  1.412903,  1.412903 )     2.83336571
  WF centre and spread    3  ( -1.412903,  1.412903,  1.412903 )     2.83336571
  WF centre and spread    4  ( -1.412903,  1.412903,  1.412903 )     2.83336571
  Sum of centres and spreads ( -5.651613,  5.651613,  5.651613 )    10.13716092
 
      3    -0.668E-02     0.2702932734       10.1371609234       0.07  <-- CONV
        O_D=      0.0159182 O_OD=      3.6149780 O_TOT=     10.1371609 <-- SPRD
 Delta: O_D= -0.1942847E-02 O_OD= -0.4737652E-02 O_TOT= -0.6680499E-02 <-- DLTA
 ------------------------------------------------------------------------------
 Cycle:      4
  WF centre and spread    1  ( -1.412903,  1.412903,  1.412903 )     1.63702416
  WF centre and spread    2  ( -1.412903,  1.412903,  1.412903 )     2.83320500
  WF centre and spread    3  ( -1.412903,  1.412903,  1.412903 )     2.83320500
  WF centre and spread    4  ( -1.412903,  1.412903,  1.412903 )     2.83320500
  Sum of centres and spreads ( -5.651613,  5.651613,  5.651613 )    10.13663917
 
      4    -0.522E-03     0.0765679318       10.1366391694       0.08  <-- CONV
        O_D=      0.0158644 O_OD=      3.6145100 O_TOT=     10.1366392 <-- SPRD
 Delta: O_D= -0.5375839E-04 O_OD= -0.4679956E-03 O_TOT= -0.5217540E-03 <-- DLTA
 ------------------------------------------------------------------------------
 Cycle:      5
  WF centre and spread    1  ( -1.412903,  1.412903,  1.412903 )     1.63702927
  WF centre and spread    2  ( -1.412903,  1.412903,  1.412903 )     2.83316196
  WF centre and spread    3  ( -1.412903,  1.412903,  1.412903 )     2.83316196
  WF centre and spread    4  ( -1.412903,  1.412903,  1.412903 )     2.83316196
  Sum of centres and spreads ( -5.651613,  5.651613,  5.651613 )    10.13651515
 
      5    -0.124E-03     0.0396880372       10.1365151477       0.08  <-- CONV
        O_D=      0.0159112 O_OD=      3.6143392 O_TOT=     10.1365151 <-- SPRD
 Delta: O_D=  0.4677801E-04 O_OD= -0.1707997E-03 O_TOT= -0.1240216E-03 <-- DLTA
 ------------------------------------------------------------------------------
 Cycle:      6
  WF centre and spread    1  ( -1.412903,  1.412903,  1.412903 )     1.63704613
  WF centre and spread    2  ( -1.412903,  1.412903,  1.412903 )     2.83315124
  WF centre and spread    3  ( -1.412903,  1.412903,  1.412903 )     2.83315124
  WF centre and spread    4  ( -1.412903,  1.412903,  1.412903 )     2.83315124
  Sum of centres and spreads ( -5.651613,  5.651613,  5.651613 )    10.13649984
 
      6    -0.153E-04     0.0135156888       10.1364998414       0.08  <-- CONV
        O_D=      0.0158951 O_OD=      3.6143400 O_TOT=     10.1364998 <-- SPRD
 Delta: O_D= -0.1609761E-04 O_OD=  0.7912871E-06 O_TOT= -0.1530633E-04 <-- DLTA
 ------------------------------------------------------------------------------
 Cycle:      7
  WF centre and spread    1  ( -1.412903,  1.412903,  1.412903 )     1.63705750
  WF centre and spread    2  ( -1.412903,  1.412903,  1.412903 )     2.83314600
  WF centre and spread    3  ( -1.412903,  1.412903,  1.412903 )     2.83314600
  WF centre and spread    4  ( -1.412903,  1.412903,  1.412903 )     2.83314600
  Sum of centres and spreads ( -5.651613,  5.651613,  5.651613 )    10.13649550
 
      7    -0.434E-05     0.0062395773       10.1364954966       0.09  <-- CONV
        O_D=      0.0158823 O_OD=      3.6143485 O_TOT=     10.1364955 <-- SPRD
 Delta: O_D= -0.1281004E-04 O_OD=  0.8465249E-05 O_TOT= -0.4344790E-05 <-- DLTA
 ------------------------------------------------------------------------------
 Cycle:      8
  WF centre and spread    1  ( -1.412903,  1.412903,  1.412903 )     1.63708261
  WF centre and spread    2  ( -1.412903,  1.412903,  1.412903 )     2.83313685
  WF centre and spread    3  ( -1.412903,  1.412903,  1.412903 )     2.83313685
  WF centre and spread    4  ( -1.412903,  1.412903,  1.412903 )     2.83313685
  Sum of centres and spreads ( -5.651613,  5.651613,  5.651613 )    10.13649317
 
      8    -0.233E-05     0.0045675055       10.1364931696       0.09  <-- CONV
        O_D=      0.0158731 O_OD=      3.6143554 O_TOT=     10.1364932 <-- SPRD
 Delta: O_D= -0.9210560E-05 O_OD=  0.6883529E-05 O_TOT= -0.2327031E-05 <-- DLTA
 ------------------------------------------------------------------------------
 Cycle:      9
  WF centre and spread    1  ( -1.412903,  1.412903,  1.412903 )     1.63709458
  WF centre and spread    2  ( -1.412903,  1.412903,  1.412903 )     2.83313273
  WF centre and spread    3  ( -1.412903,  1.412903,  1.412903 )     2.83313273
  WF centre and spread    4  ( -1.412903,  1.412903,  1.412903 )     2.83313273
  Sum of centres and spreads ( -5.651613,  5.651613,  5.651613 )    10.13649277
 
      9    -0.396E-06     0.0022288853       10.1364927740       0.09  <-- CONV
        O_D=      0.0158762 O_OD=      3.6143519 O_TOT=     10.1364928 <-- SPRD
 Delta: O_D=  0.3079255E-05 O_OD= -0.3474895E-05 O_TOT= -0.3956404E-06 <-- DLTA
 ------------------------------------------------------------------------------
 Cycle:     10
  WF centre and spread    1  ( -1.412903,  1.412903,  1.412903 )     1.63710313
  WF centre and spread    2  ( -1.412903,  1.412903,  1.412903 )     2.83312985
  WF centre and spread    3  ( -1.412903,  1.412903,  1.412903 )     2.83312985
  WF centre and spread    4  ( -1.412903,  1.412903,  1.412903 )     2.83312985
  Sum of centres and spreads ( -5.651613,  5.651613,  5.651613 )    10.13649268
 
     10    -0.944E-07     0.0009705285       10.1364926795       0.10  <-- CONV
        O_D=      0.0158755 O_OD=      3.6143524 O_TOT=     10.1364927 <-- SPRD
 Delta: O_D= -0.6176996E-06 O_OD=  0.5232786E-06 O_TOT= -0.9442099E-07 <-- DLTA
 ------------------------------------------------------------------------------
 Cycle:     11
  WF centre and spread    1  ( -1.412903,  1.412903,  1.412903 )     1.63710528
  WF centre and spread    2  ( -1.412903,  1.412903,  1.412903 )     2.83312913
  WF centre and spread    3  ( -1.412903,  1.412903,  1.412903 )     2.83312913
  WF centre and spread    4  ( -1.412903,  1.412903,  1.412903 )     2.83312913
  Sum of centres and spreads ( -5.651613,  5.651613,  5.651613 )    10.13649267
 
     11    -0.130E-07     0.0004179041       10.1364926666       0.10  <-- CONV
        O_D=      0.0158753 O_OD=      3.6143526 O_TOT=     10.1364927 <-- SPRD
 Delta: O_D= -0.1977171E-06 O_OD=  0.1847418E-06 O_TOT= -0.1297534E-07 <-- DLTA
 ------------------------------------------------------------------------------
 Cycle:     12
  WF centre and spread    1  ( -1.412903,  1.412903,  1.412903 )     1.63710619
  WF centre and spread    2  ( -1.412903,  1.412903,  1.412903 )     2.83312882
  WF centre and spread    3  ( -1.412903,  1.412903,  1.412903 )     2.83312883
  WF centre and spread    4  ( -1.412903,  1.412903,  1.412903 )     2.83312882
  Sum of centres and spreads ( -5.651613,  5.651613,  5.651613 )    10.13649266
 
     12    -0.291E-08     0.0001793765       10.1364926637       0.11  <-- CONV
        O_D=      0.0158752 O_OD=      3.6143528 O_TOT=     10.1364927 <-- SPRD
 Delta: O_D= -0.1585377E-06 O_OD=  0.1556238E-06 O_TOT= -0.2913911E-08 <-- DLTA
 ------------------------------------------------------------------------------
 Cycle:     13
  WF centre and spread    1  ( -1.412903,  1.412903,  1.412903 )     1.63710624
  WF centre and spread    2  ( -1.412903,  1.412903,  1.412903 )     2.83312881
  WF centre and spread    3  ( -1.412903,  1.412903,  1.412903 )     2.83312881
  WF centre and spread    4  ( -1.412903,  1.412903,  1.412903 )     2.83312881
  Sum of centres and spreads ( -5.651613,  5.651613,  5.651613 )    10.13649266
 
     13    -0.103E-08     0.0001553990       10.1364926626       0.11  <-- CONV
        O_D=      0.0158751 O_OD=      3.6143528 O_TOT=     10.1364927 <-- SPRD
 Delta: O_D= -0.3449933E-07 O_OD=  0.3347302E-07 O_TOT= -0.1026313E-08 <-- DLTA
 ------------------------------------------------------------------------------
 Cycle:     14
  WF centre and spread    1  ( -1.412903,  1.412903,  1.412903 )     1.63710644
  WF centre and spread    2  ( -1.412903,  1.412903,  1.412903 )     2.83312874
  WF centre and spread    3  ( -1.412903,  1.412903,  1.412903 )     2.83312874
  WF centre and spread    4  ( -1.412903,  1.412903,  1.412903 )     2.83312874
  Sum of centres and spreads ( -5.651613,  5.651613,  5.651613 )    10.13649266
 
     14    -0.753E-09     0.0000786158       10.1364926619       0.11  <-- CONV
        O_D=      0.0158751 O_OD=      3.6143529 O_TOT=     10.1364927 <-- SPRD
 Delta: O_D= -0.8737149E-07 O_OD=  0.8661860E-07 O_TOT= -0.7528911E-09 <-- DLTA
 ------------------------------------------------------------------------------
 Cycle:     15
  WF centre and spread    1  ( -1.412903,  1.412903,  1.412903 )     1.63710661
  WF centre and spread    2  ( -1.412903,  1.412903,  1.412903 )     2.83312868
  WF centre and spread    3  ( -1.412903,  1.412903,  1.412903 )     2.83312868
  WF centre and spread    4  ( -1.412903,  1.412903,  1.412903 )     2.83312868
  Sum of centres and spreads ( -5.651613,  5.651613,  5.651613 )    10.13649266
 
     15    -0.212E-09     0.0000485794       10.1364926617       0.12  <-- CONV
        O_D=      0.0158750 O_OD=      3.6143529 O_TOT=     10.1364927 <-- SPRD
 Delta: O_D= -0.4824581E-07 O_OD=  0.4803362E-07 O_TOT= -0.2121894E-09 <-- DLTA
 ------------------------------------------------------------------------------
 Cycle:     16
  WF centre and spread    1  ( -1.412903,  1.412903,  1.412903 )     1.63710674
  WF centre and spread    2  ( -1.412903,  1.412903,  1.412903 )     2.83312864
  WF centre and spread    3  ( -1.412903,  1.412903,  1.412903 )     2.83312864
  WF centre and spread    4  ( -1.412903,  1.412903,  1.412903 )     2.83312864
  Sum of centres and spreads ( -5.651613,  5.651613,  5.651613 )    10.13649266
 
     16    -0.424E-10     0.0000218457       10.1364926616       0.12  <-- CONV
        O_D=      0.0158750 O_OD=      3.6143530 O_TOT=     10.1364927 <-- SPRD
 Delta: O_D= -0.4858807E-07 O_OD=  0.4854564E-07 O_TOT= -0.4243361E-10 <-- DLTA
 ------------------------------------------------------------------------------
 Cycle:     17
  WF centre and spread    1  ( -1.412903,  1.412903,  1.412903 )     1.63710679
  WF centre and spread    2  ( -1.412903,  1.412903,  1.412903 )     2.83312863
  WF centre and spread    3  ( -1.412903,  1.412903,  1.412903 )     2.83312863
  WF centre and spread    4  ( -1.412903,  1.412903,  1.412903 )     2.83312862
  Sum of centres and spreads ( -5.651613,  5.651613,  5.651613 )    10.13649266
 
     17    -0.811E-11     0.0000094548       10.1364926616       0.13  <-- CONV
        O_D=      0.0158750 O_OD=      3.6143530 O_TOT=     10.1364927 <-- SPRD
 Delta: O_D=  0.4959422E-08 O_OD= -0.4967536E-08 O_TOT= -0.8112622E-11 <-- DLTA
 ------------------------------------------------------------------------------
 Cycle:     18
  WF centre and spread    1  ( -1.412903,  1.412903,  1.412903 )     1.63710679
  WF centre and spread    2  ( -1.412903,  1.412903,  1.412903 )     2.83312862
  WF centre and spread    3  ( -1.412903,  1.412903,  1.412903 )     2.83312862
  WF centre and spread    4  ( -1.412903,  1.412903,  1.412903 )     2.83312862
  Sum of centres and spreads ( -5.651613,  5.651613,  5.651613 )    10.13649266
 
     18    -0.177E-11     0.0000047236       10.1364926616       0.13  <-- CONV
        O_D=      0.0158750 O_OD=      3.6143530 O_TOT=     10.1364927 <-- SPRD
 Delta: O_D= -0.1038192E-08 O_OD=  0.1036420E-08 O_TOT= -0.1772804E-11 <-- DLTA
 ------------------------------------------------------------------------------
 Cycle:     19
  WF centre and spread    1  ( -1.412903,  1.412903,  1.412903 )     1.63710679
  WF centre and spread    2  ( -1.412903,  1.412903,  1.412903 )     2.83312862
  WF centre and spread    3  ( -1.412903,  1.412903,  1.412903 )     2.83312862
  WF centre and spread    4  ( -1.412903,  1.412903,  1.412903 )     2.83312862
  Sum of centres and spreads ( -5.651613,  5.651613,  5.651613 )    10.13649266
 
     19    -0.437E-12     0.0000029939       10.1364926616       0.13  <-- CONV
        O_D=      0.0158750 O_OD=      3.6143530 O_TOT=     10.1364927 <-- SPRD
 Delta: O_D= -0.1874169E-08 O_OD=  0.1873731E-08 O_TOT= -0.4369838E-12 <-- DLTA
 ------------------------------------------------------------------------------
 Cycle:     20
  WF centre and spread    1  ( -1.412903,  1.412903,  1.412903 )     1.63710679
  WF centre and spread    2  ( -1.412903,  1.412903,  1.412903 )     2.83312862
  WF centre and spread    3  ( -1.412903,  1.412903,  1.412903 )     2.83312863
  WF centre and spread    4  ( -1.412903,  1.412903,  1.412903 )     2.83312862
  Sum of centres and spreads ( -5.651613,  5.651613,  5.651613 )    10.13649266
 
     20    -0.176E-12     0.0000016155       10.1364926616       0.14  <-- CONV
        O_D=      0.0158750 O_OD=      3.6143530 O_TOT=     10.1364927 <-- SPRD
 Delta: O_D= -0.1859484E-08 O_OD=  0.1859310E-08 O_TOT= -0.1758593E-12 <-- DLTA
 ------------------------------------------------------------------------------
 Cycle:     21
  WF centre and spread    1  ( -1.412903,  1.412903,  1.412903 )     1.63710679
  WF centre and spread    2  ( -1.412903,  1.412903,  1.412903 )     2.83312863
  WF centre and spread    3  ( -1.412903,  1.412903,  1.412903 )     2.83312863
  WF centre and spread    4  ( -1.412903,  1.412903,  1.412903 )     2.83312862
  Sum of centres and spreads ( -5.651613,  5.651613,  5.651613 )    10.13649266
 
     21    -0.103E-12     0.0000011931       10.1364926616       0.14  <-- CONV
        O_D=      0.0158750 O_OD=      3.6143530 O_TOT=     10.1364927 <-- SPRD
 Delta: O_D= -0.9023364E-09 O_OD=  0.9022334E-09 O_TOT= -0.1030287E-12 <-- DLTA
 ------------------------------------------------------------------------------
 Cycle:     22
  WF centre and spread    1  ( -1.412903,  1.412903,  1.412903 )     1.63710679
  WF centre and spread    2  ( -1.412903,  1.412903,  1.412903 )     2.83312863
  WF centre and spread    3  ( -1.412903,  1.412903,  1.412903 )     2.83312863
  WF centre and spread    4  ( -1.412903,  1.412903,  1.412903 )     2.83312862
  Sum of centres and spreads ( -5.651613,  5.651613,  5.651613 )    10.13649266
 
     22    -0.675E-13     0.0000009114       10.1364926616       0.14  <-- CONV
        O_D=      0.0158750 O_OD=      3.6143530 O_TOT=     10.1364927 <-- SPRD
 Delta: O_D= -0.8832431E-09 O_OD=  0.8831758E-09 O_TOT= -0.6750156E-13 <-- DLTA
 ------------------------------------------------------------------------------
 Cycle:     23
  WF centre and spread    1  ( -1.412903,  1.412903,  1.412903 )     1.63710678
  WF centre and spread    2  ( -1.412903,  1.412903,  1.412903 )     2.83312863
  WF centre and spread    3  ( -1.412903,  1.412903,  1.412903 )     2.83312863
  WF centre and spread    4  ( -1.412903,  1.412903,  1.412903 )     2.83312863
  Sum of centres and spreads ( -5.651613,  5.651613,  5.651613 )    10.13649266
 
     23    -0.604E-13     0.0000007407       10.1364926616       0.15  <-- CONV
        O_D=      0.0158750 O_OD=      3.6143530 O_TOT=     10.1364927 <-- SPRD
 Delta: O_D= -0.7452124E-09 O_OD=  0.7451506E-09 O_TOT= -0.6039613E-13 <-- DLTA
 ------------------------------------------------------------------------------
 Cycle:     24
  WF centre and spread    1  ( -1.412903,  1.412903,  1.412903 )     1.63710678
  WF centre and spread    2  ( -1.412903,  1.412903,  1.412903 )     2.83312863
  WF centre and spread    3  ( -1.412903,  1.412903,  1.412903 )     2.83312863
  WF centre and spread    4  ( -1.412903,  1.412903,  1.412903 )     2.83312863
  Sum of centres and spreads ( -5.651613,  5.651613,  5.651613 )    10.13649266
 
     24    -0.711E-14     0.0000006359       10.1364926616       0.15  <-- CONV
        O_D=      0.0158750 O_OD=      3.6143530 O_TOT=     10.1364927 <-- SPRD
 Delta: O_D= -0.5224998E-09 O_OD=  0.5224923E-09 O_TOT= -0.7105427E-14 <-- DLTA
 ------------------------------------------------------------------------------
 Cycle:     25
  WF centre and spread    1  ( -1.412903,  1.412903,  1.412903 )     1.63710678
  WF centre and spread    2  ( -1.412903,  1.412903,  1.412903 )     2.83312863
  WF centre and spread    3  ( -1.412903,  1.412903,  1.412903 )     2.83312863
  WF centre and spread    4  ( -1.412903,  1.412903,  1.412903 )     2.83312863
  Sum of centres and spreads ( -5.651613,  5.651613,  5.651613 )    10.13649266
 
     25    -0.142E-13     0.0000005105       10.1364926616       0.15  <-- CONV
        O_D=      0.0158750 O_OD=      3.6143530 O_TOT=     10.1364927 <-- SPRD
 Delta: O_D= -0.8784388E-10 O_OD=  0.8783019E-10 O_TOT= -0.1421085E-13 <-- DLTA
 ------------------------------------------------------------------------------
 Cycle:     26
  WF centre and spread    1  ( -1.412903,  1.412903,  1.412903 )     1.63710678
  WF centre and spread    2  ( -1.412903,  1.412903,  1.412903 )     2.83312863
  WF centre and spread    3  ( -1.412903,  1.412903,  1.412903 )     2.83312863
  WF centre and spread    4  ( -1.412903,  1.412903,  1.412903 )     2.83312863
  Sum of centres and spreads ( -5.651613,  5.651613,  5.651613 )    10.13649266
 
     26    -0.213E-13     0.0000004366       10.1364926616       0.15  <-- CONV
        O_D=      0.0158750 O_OD=      3.6143530 O_TOT=     10.1364927 <-- SPRD
 Delta: O_D= -0.1594051E-09 O_OD=  0.1593836E-09 O_TOT= -0.2131628E-13 <-- DLTA
 ------------------------------------------------------------------------------
 Cycle:     27
  WF centre and spread    1  ( -1.412903,  1.412903,  1.412903 )     1.63710678
  WF centre and spread    2  ( -1.412903,  1.412903,  1.412903 )     2.83312863
  WF centre and spread    3  ( -1.412903,  1.412903,  1.412903 )     2.83312863
  WF centre and spread    4  ( -1.412903,  1.412903,  1.412903 )     2.83312863
  Sum of centres and spreads ( -5.651613,  5.651613,  5.651613 )    10.13649266
 
     27     0.711E-14     0.0000003791       10.1364926616       0.16  <-- CONV
        O_D=      0.0158750 O_OD=      3.6143530 O_TOT=     10.1364927 <-- SPRD
 Delta: O_D= -0.5098002E-10 O_OD=  0.5098633E-10 O_TOT=  0.7105427E-14 <-- DLTA
 ------------------------------------------------------------------------------
 Cycle:     28
  WF centre and spread    1  ( -1.412903,  1.412903,  1.412903 )     1.63710678
  WF centre and spread    2  ( -1.412903,  1.412903,  1.412903 )     2.83312863
  WF centre and spread    3  ( -1.412903,  1.412903,  1.412903 )     2.83312863
  WF centre and spread    4  ( -1.412903,  1.412903,  1.412903 )     2.83312863
  Sum of centres and spreads ( -5.651613,  5.651613,  5.651613 )    10.13649266
 
     28    -0.213E-13     0.0000003676       10.1364926616       0.16  <-- CONV
        O_D=      0.0158750 O_OD=      3.6143530 O_TOT=     10.1364927 <-- SPRD
 Delta: O_D= -0.3138183E-09 O_OD=  0.3137974E-09 O_TOT= -0.2131628E-13 <-- DLTA
 ------------------------------------------------------------------------------
 Cycle:     29
  WF centre and spread    1  ( -1.412903,  1.412903,  1.412903 )     1.63710678
  WF centre and spread    2  ( -1.412903,  1.412903,  1.412903 )     2.83312863
  WF centre and spread    3  ( -1.412903,  1.412903,  1.412903 )     2.83312863
  WF centre and spread    4  ( -1.412903,  1.412903,  1.412903 )     2.83312863
  Sum of centres and spreads ( -5.651613,  5.651613,  5.651613 )    10.13649266
 
     29    -0.160E-13     0.0000002925       10.1364926616       0.16  <-- CONV
        O_D=      0.0158750 O_OD=      3.6143530 O_TOT=     10.1364927 <-- SPRD
 Delta: O_D= -0.9288210E-10 O_OD=  0.9286660E-10 O_TOT= -0.1598721E-13 <-- DLTA
 ------------------------------------------------------------------------------
 Cycle:     30
  WF centre and spread    1  ( -1.412903,  1.412903,  1.412903 )     1.63710678
  WF centre and spread    2  ( -1.412903,  1.412903,  1.412903 )     2.83312863
  WF centre and spread    3  ( -1.412903,  1.412903,  1.412903 )     2.83312863
  WF centre and spread    4  ( -1.412903,  1.412903,  1.412903 )     2.83312863
  Sum of centres and spreads ( -5.651613,  5.651613,  5.651613 )    10.13649266
 
     30     0.888E-14     0.0000002677       10.1364926616       0.17  <-- CONV
        O_D=      0.0158750 O_OD=      3.6143530 O_TOT=     10.1364927 <-- SPRD
 Delta: O_D= -0.7869162E-10 O_OD=  0.7870149E-10 O_TOT=  0.8881784E-14 <-- DLTA
 ------------------------------------------------------------------------------
 Cycle:     31
  WF centre and spread    1  ( -1.412903,  1.412903,  1.412903 )     1.63710678
  WF centre and spread    2  ( -1.412903,  1.412903,  1.412903 )     2.83312863
  WF centre and spread    3  ( -1.412903,  1.412903,  1.412903 )     2.83312863
  WF centre and spread    4  ( -1.412903,  1.412903,  1.412903 )     2.83312863
  Sum of centres and spreads ( -5.651613,  5.651613,  5.651613 )    10.13649266
 
     31     0.711E-14     0.0000002462       10.1364926616       0.17  <-- CONV
        O_D=      0.0158750 O_OD=      3.6143530 O_TOT=     10.1364927 <-- SPRD
 Delta: O_D= -0.6009426E-11 O_OD=  0.6016077E-11 O_TOT=  0.7105427E-14 <-- DLTA
 ------------------------------------------------------------------------------
 Cycle:     32
  WF centre and spread    1  ( -1.412903,  1.412903,  1.412903 )     1.63710678
  WF centre and spread    2  ( -1.412903,  1.412903,  1.412903 )     2.83312863
  WF centre and spread    3  ( -1.412903,  1.412903,  1.412903 )     2.83312863
  WF centre and spread    4  ( -1.412903,  1.412903,  1.412903 )     2.83312863
  Sum of centres and spreads ( -5.651613,  5.651613,  5.651613 )    10.13649266
 
     32    -0.107E-13     0.0000002446       10.1364926616       0.17  <-- CONV
        O_D=      0.0158750 O_OD=      3.6143530 O_TOT=     10.1364927 <-- SPRD
 Delta: O_D= -0.1863929E-09 O_OD=  0.1863807E-09 O_TOT= -0.1065814E-13 <-- DLTA
 ------------------------------------------------------------------------------
 Cycle:     33
  WF centre and spread    1  ( -1.412903,  1.412903,  1.412903 )     1.63710678
  WF centre and spread    2  ( -1.412903,  1.412903,  1.412903 )     2.83312863
  WF centre and spread    3  ( -1.412903,  1.412903,  1.412903 )     2.83312863
  WF centre and spread    4  ( -1.412903,  1.412903,  1.412903 )     2.83312863
  Sum of centres and spreads ( -5.651613,  5.651613,  5.651613 )    10.13649266
 
     33    -0.355E-14     0.0000002062       10.1364926616       0.18  <-- CONV
        O_D=      0.0158750 O_OD=      3.6143530 O_TOT=     10.1364927 <-- SPRD
 Delta: O_D= -0.2068839E-09 O_OD=  0.2068825E-09 O_TOT= -0.3552714E-14 <-- DLTA
 ------------------------------------------------------------------------------
 Cycle:     34
  WF centre and spread    1  ( -1.412903,  1.412903,  1.412903 )     1.63710678
  WF centre and spread    2  ( -1.412903,  1.412903,  1.412903 )     2.83312863
  WF centre and spread    3  ( -1.412903,  1.412903,  1.412903 )     2.83312863
  WF centre and spread    4  ( -1.412903,  1.412903,  1.412903 )     2.83312863
  Sum of centres and spreads ( -5.651613,  5.651613,  5.651613 )    10.13649266
 
     34    -0.178E-14     0.0000001801       10.1364926616       0.18  <-- CONV
        O_D=      0.0158750 O_OD=      3.6143530 O_TOT=     10.1364927 <-- SPRD
 Delta: O_D= -0.2129965E-09 O_OD=  0.2129932E-09 O_TOT= -0.1776357E-14 <-- DLTA
 ------------------------------------------------------------------------------
 Cycle:     35
  WF centre and spread    1  ( -1.412903,  1.412903,  1.412903 )     1.63710678
  WF centre and spread    2  ( -1.412903,  1.412903,  1.412903 )     2.83312863
  WF centre and spread    3  ( -1.412903,  1.412903,  1.412903 )     2.83312863
  WF centre and spread    4  ( -1.412903,  1.412903,  1.412903 )     2.83312863
  Sum of centres and spreads ( -5.651613,  5.651613,  5.651613 )    10.13649266
 
     35    -0.178E-14     0.0000001448       10.1364926616       0.18  <-- CONV
        O_D=      0.0158750 O_OD=      3.6143530 O_TOT=     10.1364927 <-- SPRD
 Delta: O_D= -0.2979711E-10 O_OD=  0.2979439E-10 O_TOT= -0.1776357E-14 <-- DLTA
 ------------------------------------------------------------------------------
 Cycle:     36
  WF centre and spread    1  ( -1.412903,  1.412903,  1.412903 )     1.63710678
  WF centre and spread    2  ( -1.412903,  1.412903,  1.412903 )     2.83312863
  WF centre and spread    3  ( -1.412903,  1.412903,  1.412903 )     2.83312863
  WF centre and spread    4  ( -1.412903,  1.412903,  1.412903 )     2.83312863
  Sum of centres and spreads ( -5.651613,  5.651613,  5.651613 )    10.13649266
 
     36    -0.266E-13     0.0000001375       10.1364926616       0.18  <-- CONV
        O_D=      0.0158750 O_OD=      3.6143530 O_TOT=     10.1364927 <-- SPRD
 Delta: O_D= -0.1949355E-09 O_OD=  0.1949108E-09 O_TOT= -0.2664535E-13 <-- DLTA
 ------------------------------------------------------------------------------
 Cycle:     37
  WF centre and spread    1  ( -1.412903,  1.412903,  1.412903 )     1.63710678
  WF centre and spread    2  ( -1.412903,  1.412903,  1.412903 )     2.83312863
  WF centre and spread    3  ( -1.412903,  1.412903,  1.412903 )     2.83312863
  WF centre and spread    4  ( -1.412903,  1.412903,  1.412903 )     2.83312863
  Sum of centres and spreads ( -5.651613,  5.651613,  5.651613 )    10.13649266
 
     37     0.373E-13     0.0000000921       10.1364926616       0.19  <-- CONV
        O_D=      0.0158750 O_OD=      3.6143530 O_TOT=     10.1364927 <-- SPRD
 Delta: O_D= -0.1349684E-12 O_OD=  0.1718625E-12 O_TOT=  0.3730349E-13 <-- DLTA
 ------------------------------------------------------------------------------
 Cycle:     38
  WF centre and spread    1  ( -1.412903,  1.412903,  1.412903 )     1.63710678
  WF centre and spread    2  ( -1.412903,  1.412903,  1.412903 )     2.83312863
  WF centre and spread    3  ( -1.412903,  1.412903,  1.412903 )     2.83312863
  WF centre and spread    4  ( -1.412903,  1.412903,  1.412903 )     2.83312863
  Sum of centres and spreads ( -5.651613,  5.651613,  5.651613 )    10.13649266
 
     38    -0.355E-13     0.0000000920       10.1364926616       0.19  <-- CONV
        O_D=      0.0158750 O_OD=      3.6143530 O_TOT=     10.1364927 <-- SPRD
 Delta: O_D= -0.5324479E-10 O_OD=  0.5320855E-10 O_TOT= -0.3552714E-13 <-- DLTA
 ------------------------------------------------------------------------------
 Cycle:     39
  WF centre and spread    1  ( -1.412903,  1.412903,  1.412903 )     1.63710678
  WF centre and spread    2  ( -1.412903,  1.412903,  1.412903 )     2.83312863
  WF centre and spread    3  ( -1.412903,  1.412903,  1.412903 )     2.83312863
  WF centre and spread    4  ( -1.412903,  1.412903,  1.412903 )     2.83312863
  Sum of centres and spreads ( -5.651613,  5.651613,  5.651613 )    10.13649266
 
     39     0.231E-13     0.0000000793       10.1364926616       0.19  <-- CONV
        O_D=      0.0158750 O_OD=      3.6143530 O_TOT=     10.1364927 <-- SPRD
 Delta: O_D= -0.9737419E-12 O_OD=  0.9987566E-12 O_TOT=  0.2309264E-13 <-- DLTA
 ------------------------------------------------------------------------------
 Cycle:     40
  WF centre and spread    1  ( -1.412903,  1.412903,  1.412903 )     1.63710679
  WF centre and spread    2  ( -1.412903,  1.412903,  1.412903 )     2.83312863
  WF centre and spread    3  ( -1.412903,  1.412903,  1.412903 )     2.83312863
  WF centre and spread    4  ( -1.412903,  1.412903,  1.412903 )     2.83312863
  Sum of centres and spreads ( -5.651613,  5.651613,  5.651613 )    10.13649266
 
     40    -0.711E-14     0.0000000791       10.1364926616       0.20  <-- CONV
        O_D=      0.0158750 O_OD=      3.6143530 O_TOT=     10.1364927 <-- SPRD
 Delta: O_D= -0.9113408E-10 O_OD=  0.9112577E-10 O_TOT= -0.7105427E-14 <-- DLTA
 ------------------------------------------------------------------------------
 Cycle:     41
  WF centre and spread    1  ( -1.412903,  1.412903,  1.412903 )     1.63710679
  WF centre and spread    2  ( -1.412903,  1.412903,  1.412903 )     2.83312863
  WF centre and spread    3  ( -1.412903,  1.412903,  1.412903 )     2.83312863
  WF centre and spread    4  ( -1.412903,  1.412903,  1.412903 )     2.83312863
  Sum of centres and spreads ( -5.651613,  5.651613,  5.651613 )    10.13649266
 
     41     0.142E-13     0.0000000619       10.1364926616       0.20  <-- CONV
        O_D=      0.0158750 O_OD=      3.6143530 O_TOT=     10.1364927 <-- SPRD
 Delta: O_D= -0.1501431E-11 O_OD=  0.1516121E-11 O_TOT=  0.1421085E-13 <-- DLTA
 ------------------------------------------------------------------------------
 Cycle:     42
  WF centre and spread    1  ( -1.412903,  1.412903,  1.412903 )     1.63710679
  WF centre and spread    2  ( -1.412903,  1.412903,  1.412903 )     2.83312863
  WF centre and spread    3  ( -1.412903,  1.412903,  1.412903 )     2.83312863
  WF centre and spread    4  ( -1.412903,  1.412903,  1.412903 )     2.83312863
  Sum of centres and spreads ( -5.651613,  5.651613,  5.651613 )    10.13649266
 
     42    -0.213E-13     0.0000000616       10.1364926616       0.20  <-- CONV
        O_D=      0.0158750 O_OD=      3.6143530 O_TOT=     10.1364927 <-- SPRD
 Delta: O_D= -0.1013440E-09 O_OD=  0.1013216E-09 O_TOT= -0.2131628E-13 <-- DLTA
 ------------------------------------------------------------------------------
 Cycle:     43
  WF centre and spread    1  ( -1.412903,  1.412903,  1.412903 )     1.63710679
  WF centre and spread    2  ( -1.412903,  1.412903,  1.412903 )     2.83312863
  WF centre and spread    3  ( -1.412903,  1.412903,  1.412903 )     2.83312863
  WF centre and spread    4  ( -1.412903,  1.412903,  1.412903 )     2.83312863
  Sum of centres and spreads ( -5.651613,  5.651613,  5.651613 )    10.13649266
 
     43     0.124E-13     0.0000000424       10.1364926616       0.21  <-- CONV
        O_D=      0.0158750 O_OD=      3.6143530 O_TOT=     10.1364927 <-- SPRD
 Delta: O_D= -0.1688233E-12 O_OD=  0.1807443E-12 O_TOT=  0.1243450E-13 <-- DLTA
 ------------------------------------------------------------------------------
 Cycle:     44
  WF centre and spread    1  ( -1.412903,  1.412903,  1.412903 )     1.63710679
  WF centre and spread    2  ( -1.412903,  1.412903,  1.412903 )     2.83312863
  WF centre and spread    3  ( -1.412903,  1.412903,  1.412903 )     2.83312863
  WF centre and spread    4  ( -1.412903,  1.412903,  1.412903 )     2.83312863
  Sum of centres and spreads ( -5.651613,  5.651613,  5.651613 )    10.13649266
 
     44     0.533E-14     0.0000000424       10.1364926616       0.21  <-- CONV
        O_D=      0.0158750 O_OD=      3.6143530 O_TOT=     10.1364927 <-- SPRD
 Delta: O_D= -0.1239529E-12 O_OD=  0.1301181E-12 O_TOT=  0.5329071E-14 <-- DLTA
 ------------------------------------------------------------------------------
 Cycle:     45
  WF centre and spread    1  ( -1.412903,  1.412903,  1.412903 )     1.63710679
  WF centre and spread    2  ( -1.412903,  1.412903,  1.412903 )     2.83312863
  WF centre and spread    3  ( -1.412903,  1.412903,  1.412903 )     2.83312863
  WF centre and spread    4  ( -1.412903,  1.412903,  1.412903 )     2.83312863
  Sum of centres and spreads ( -5.651613,  5.651613,  5.651613 )    10.13649266
 
     45    -0.355E-14     0.0000000424       10.1364926616       0.21  <-- CONV
        O_D=      0.0158750 O_OD=      3.6143530 O_TOT=     10.1364927 <-- SPRD
 Delta: O_D= -0.5271722E-10 O_OD=  0.5271295E-10 O_TOT= -0.3552714E-14 <-- DLTA
 ------------------------------------------------------------------------------
 Cycle:     46
  WF centre and spread    1  ( -1.412903,  1.412903,  1.412903 )     1.63710679
  WF centre and spread    2  ( -1.412903,  1.412903,  1.412903 )     2.83312863
  WF centre and spread    3  ( -1.412903,  1.412903,  1.412903 )     2.83312863
  WF centre and spread    4  ( -1.412903,  1.412903,  1.412903 )     2.83312863
  Sum of centres and spreads ( -5.651613,  5.651613,  5.651613 )    10.13649266
 
     46     0.355E-14     0.0000000343       10.1364926616       0.22  <-- CONV
        O_D=      0.0158750 O_OD=      3.6143530 O_TOT=     10.1364927 <-- SPRD
 Delta: O_D= -0.9833662E-12 O_OD=  0.9885426E-12 O_TOT=  0.3552714E-14 <-- DLTA
 ------------------------------------------------------------------------------
 Cycle:     47
  WF centre and spread    1  ( -1.412903,  1.412903,  1.412903 )     1.63710679
  WF centre and spread    2  ( -1.412903,  1.412903,  1.412903 )     2.83312863
  WF centre and spread    3  ( -1.412903,  1.412903,  1.412903 )     2.83312863
  WF centre and spread    4  ( -1.412903,  1.412903,  1.412903 )     2.83312862
  Sum of centres and spreads ( -5.651613,  5.651613,  5.651613 )    10.13649266
 
     47    -0.178E-13     0.0000000342       10.1364926616       0.22  <-- CONV
        O_D=      0.0158750 O_OD=      3.6143530 O_TOT=     10.1364927 <-- SPRD
 Delta: O_D= -0.5910701E-10 O_OD=  0.5908873E-10 O_TOT= -0.1776357E-13 <-- DLTA
 ------------------------------------------------------------------------------
 Cycle:     48
  WF centre and spread    1  ( -1.412903,  1.412903,  1.412903 )     1.63710679
  WF centre and spread    2  ( -1.412903,  1.412903,  1.412903 )     2.83312863
  WF centre and spread    3  ( -1.412903,  1.412903,  1.412903 )     2.83312863
  WF centre and spread    4  ( -1.412903,  1.412903,  1.412903 )     2.83312862
  Sum of centres and spreads ( -5.651613,  5.651613,  5.651613 )    10.13649266
 
     48     0.711E-14     0.0000000252       10.1364926616       0.22  <-- CONV
        O_D=      0.0158750 O_OD=      3.6143530 O_TOT=     10.1364927 <-- SPRD
 Delta: O_D= -0.2827322E-12 O_OD=  0.2882139E-12 O_TOT=  0.7105427E-14 <-- DLTA
 ------------------------------------------------------------------------------
 Cycle:     49
  WF centre and spread    1  ( -1.412903,  1.412903,  1.412903 )     1.63710679
  WF centre and spread    2  ( -1.412903,  1.412903,  1.412903 )     2.83312863
  WF centre and spread    3  ( -1.412903,  1.412903,  1.412903 )     2.83312863
  WF centre and spread    4  ( -1.412903,  1.412903,  1.412903 )     2.83312862
  Sum of centres and spreads ( -5.651613,  5.651613,  5.651613 )    10.13649266
 
     49     0.533E-14     0.0000000252       10.1364926616       0.23  <-- CONV
        O_D=      0.0158750 O_OD=      3.6143530 O_TOT=     10.1364927 <-- SPRD
 Delta: O_D= -0.1739581E-13 O_OD=  0.2442491E-13 O_TOT=  0.5329071E-14 <-- DLTA
 ------------------------------------------------------------------------------
 Cycle:     50
  WF centre and spread    1  ( -1.412903,  1.412903,  1.412903 )     1.63710679
  WF centre and spread    2  ( -1.412903,  1.412903,  1.412903 )     2.83312863
  WF centre and spread    3  ( -1.412903,  1.412903,  1.412903 )     2.83312863
  WF centre and spread    4  ( -1.412903,  1.412903,  1.412903 )     2.83312862
  Sum of centres and spreads ( -5.651613,  5.651613,  5.651613 )    10.13649266
 
     50    -0.711E-14     0.0000000252       10.1364926616       0.23  <-- CONV
        O_D=      0.0158750 O_OD=      3.6143530 O_TOT=     10.1364927 <-- SPRD
 Delta: O_D= -0.1521835E-10 O_OD=  0.1521050E-10 O_TOT= -0.7105427E-14 <-- DLTA
 ------------------------------------------------------------------------------
 Cycle:     51
  WF centre and spread    1  ( -1.412903,  1.412903,  1.412903 )     1.63710679
  WF centre and spread    2  ( -1.412903,  1.412903,  1.412903 )     2.83312863
  WF centre and spread    3  ( -1.412903,  1.412903,  1.412903 )     2.83312863
  WF centre and spread    4  ( -1.412903,  1.412903,  1.412903 )     2.83312862
  Sum of centres and spreads ( -5.651613,  5.651613,  5.651613 )    10.13649266
 
     51     0.711E-14     0.0000000219       10.1364926616       0.23  <-- CONV
        O_D=      0.0158750 O_OD=      3.6143530 O_TOT=     10.1364927 <-- SPRD
 Delta: O_D= -0.6655440E-13 O_OD=  0.7505108E-13 O_TOT=  0.7105427E-14 <-- DLTA
 ------------------------------------------------------------------------------
 Cycle:     52
  WF centre and spread    1  ( -1.412903,  1.412903,  1.412903 )     1.63710679
  WF centre and spread    2  ( -1.412903,  1.412903,  1.412903 )     2.83312863
  WF centre and spread    3  ( -1.412903,  1.412903,  1.412903 )     2.83312863
  WF centre and spread    4  ( -1.412903,  1.412903,  1.412903 )     2.83312862
  Sum of centres and spreads ( -5.651613,  5.651613,  5.651613 )    10.13649266
 
     52    -0.160E-13     0.0000000218       10.1364926616       0.24  <-- CONV
        O_D=      0.0158750 O_OD=      3.6143530 O_TOT=     10.1364927 <-- SPRD
 Delta: O_D= -0.2645757E-10 O_OD=  0.2644018E-10 O_TOT= -0.1598721E-13 <-- DLTA
 ------------------------------------------------------------------------------
 Cycle:     53
  WF centre and spread    1  ( -1.412903,  1.412903,  1.412903 )     1.63710679
  WF centre and spread    2  ( -1.412903,  1.412903,  1.412903 )     2.83312863
  WF centre and spread    3  ( -1.412903,  1.412903,  1.412903 )     2.83312863
  WF centre and spread    4  ( -1.412903,  1.412903,  1.412903 )     2.83312862
  Sum of centres and spreads ( -5.651613,  5.651613,  5.651613 )    10.13649266
 
     53     0.160E-13     0.0000000171       10.1364926616       0.24  <-- CONV
        O_D=      0.0158750 O_OD=      3.6143530 O_TOT=     10.1364927 <-- SPRD
 Delta: O_D= -0.4626854E-13 O_OD=  0.6261658E-13 O_TOT=  0.1598721E-13 <-- DLTA
 ------------------------------------------------------------------------------
 Cycle:     54
  WF centre and spread    1  ( -1.412903,  1.412903,  1.412903 )     1.63710679
  WF centre and spread    2  ( -1.412903,  1.412903,  1.412903 )     2.83312863
  WF centre and spread    3  ( -1.412903,  1.412903,  1.412903 )     2.83312863
  WF centre and spread    4  ( -1.412903,  1.412903,  1.412903 )     2.83312862
  Sum of centres and spreads ( -5.651613,  5.651613,  5.651613 )    10.13649266
 
     54    -0.355E-14     0.0000000171       10.1364926616       0.24  <-- CONV
        O_D=      0.0158750 O_OD=      3.6143530 O_TOT=     10.1364927 <-- SPRD
 Delta: O_D= -0.5637157E-13 O_OD=  0.5329071E-13 O_TOT= -0.3552714E-14 <-- DLTA
 ------------------------------------------------------------------------------
 Cycle:     55
  WF centre and spread    1  ( -1.412903,  1.412903,  1.412903 )     1.63710679
  WF centre and spread    2  ( -1.412903,  1.412903,  1.412903 )     2.83312863
  WF centre and spread    3  ( -1.412903,  1.412903,  1.412903 )     2.83312863
  WF centre and spread    4  ( -1.412903,  1.412903,  1.412903 )     2.83312862
  Sum of centres and spreads ( -5.651613,  5.651613,  5.651613 )    10.13649266
 
     55    -0.142E-13     0.0000000171       10.1364926616       0.25  <-- CONV
        O_D=      0.0158750 O_OD=      3.6143530 O_TOT=     10.1364927 <-- SPRD
 Delta: O_D= -0.6683622E-11 O_OD=  0.6668444E-11 O_TOT= -0.1421085E-13 <-- DLTA
 ------------------------------------------------------------------------------
 Cycle:     56
  WF centre and spread    1  ( -1.412903,  1.412903,  1.412903 )     1.63710679
  WF centre and spread    2  ( -1.412903,  1.412903,  1.412903 )     2.83312863
  WF centre and spread    3  ( -1.412903,  1.412903,  1.412903 )     2.83312863
  WF centre and spread    4  ( -1.412903,  1.412903,  1.412903 )     2.83312862
  Sum of centres and spreads ( -5.651613,  5.651613,  5.651613 )    10.13649266
 
     56     0.888E-14     0.0000000159       10.1364926616       0.25  <-- CONV
        O_D=      0.0158750 O_OD=      3.6143530 O_TOT=     10.1364927 <-- SPRD
 Delta: O_D= -0.6300516E-14 O_OD=  0.1598721E-13 O_TOT=  0.8881784E-14 <-- DLTA
 ------------------------------------------------------------------------------
 Cycle:     57
  WF centre and spread    1  ( -1.412903,  1.412903,  1.412903 )     1.63710679
  WF centre and spread    2  ( -1.412903,  1.412903,  1.412903 )     2.83312863
  WF centre and spread    3  ( -1.412903,  1.412903,  1.412903 )     2.83312863
  WF centre and spread    4  ( -1.412903,  1.412903,  1.412903 )     2.83312862
  Sum of centres and spreads ( -5.651613,  5.651613,  5.651613 )    10.13649266
 
     57    -0.107E-13     0.0000000159       10.1364926616       0.25  <-- CONV
        O_D=      0.0158750 O_OD=      3.6143530 O_TOT=     10.1364927 <-- SPRD
 Delta: O_D= -0.1793951E-10 O_OD=  0.1792966E-10 O_TOT= -0.1065814E-13 <-- DLTA
 ------------------------------------------------------------------------------
 Cycle:     58
  WF centre and spread    1  ( -1.412903,  1.412903,  1.412903 )     1.63710679
  WF centre and spread    2  ( -1.412903,  1.412903,  1.412903 )     2.83312863
  WF centre and spread    3  ( -1.412903,  1.412903,  1.412903 )     2.83312863
  WF centre and spread    4  ( -1.412903,  1.412903,  1.412903 )     2.83312862
  Sum of centres and spreads ( -5.651613,  5.651613,  5.651613 )    10.13649266
 
     58    -0.533E-14     0.0000000131       10.1364926616       0.26  <-- CONV
        O_D=      0.0158750 O_OD=      3.6143530 O_TOT=     10.1364927 <-- SPRD
 Delta: O_D= -0.3502754E-13 O_OD=  0.2975398E-13 O_TOT= -0.5329071E-14 <-- DLTA
 ------------------------------------------------------------------------------
 Cycle:     59
  WF centre and spread    1  ( -1.412903,  1.412903,  1.412903 )     1.63710679
  WF centre and spread    2  ( -1.412903,  1.412903,  1.412903 )     2.83312863
  WF centre and spread    3  ( -1.412903,  1.412903,  1.412903 )     2.83312863
  WF centre and spread    4  ( -1.412903,  1.412903,  1.412903 )     2.83312862
  Sum of centres and spreads ( -5.651613,  5.651613,  5.651613 )    10.13649266
 
     59     0.533E-14     0.0000000131       10.1364926616       0.26  <-- CONV
        O_D=      0.0158750 O_OD=      3.6143530 O_TOT=     10.1364927 <-- SPRD
 Delta: O_D= -0.7042977E-15 O_OD=  0.4440892E-14 O_TOT=  0.5329071E-14 <-- DLTA
 ------------------------------------------------------------------------------
 Cycle:     60
  WF centre and spread    1  ( -1.412903,  1.412903,  1.412903 )     1.63710679
  WF centre and spread    2  ( -1.412903,  1.412903,  1.412903 )     2.83312863
  WF centre and spread    3  ( -1.412903,  1.412903,  1.412903 )     2.83312863
  WF centre and spread    4  ( -1.412903,  1.412903,  1.412903 )     2.83312862
  Sum of centres and spreads ( -5.651613,  5.651613,  5.651613 )    10.13649266
 
     60     0.533E-14     0.0000000131       10.1364926616       0.26  <-- CONV
        O_D=      0.0158750 O_OD=      3.6143530 O_TOT=     10.1364927 <-- SPRD
 Delta: O_D= -0.7008283E-15 O_OD=  0.5329071E-14 O_TOT=  0.5329071E-14 <-- DLTA
 ------------------------------------------------------------------------------
 Cycle:     61
  WF centre and spread    1  ( -1.412903,  1.412903,  1.412903 )     1.63710679
  WF centre and spread    2  ( -1.412903,  1.412903,  1.412903 )     2.83312863
  WF centre and spread    3  ( -1.412903,  1.412903,  1.412903 )     2.83312863
  WF centre and spread    4  ( -1.412903,  1.412903,  1.412903 )     2.83312862
  Sum of centres and spreads ( -5.651613,  5.651613,  5.651613 )    10.13649266
 
     61    -0.355E-14     0.0000000131       10.1364926616       0.27  <-- CONV
        O_D=      0.0158750 O_OD=      3.6143530 O_TOT=     10.1364927 <-- SPRD
 Delta: O_D= -0.9298118E-15 O_OD= -0.1332268E-14 O_TOT= -0.3552714E-14 <-- DLTA
 ------------------------------------------------------------------------------
 Cycle:     62
  WF centre and spread    1  ( -1.412903,  1.412903,  1.412903 )     1.63710679
  WF centre and spread    2  ( -1.412903,  1.412903,  1.412903 )     2.83312863
  WF centre and spread    3  ( -1.412903,  1.412903,  1.412903 )     2.83312863
  WF centre and spread    4  ( -1.412903,  1.412903,  1.412903 )     2.83312862
  Sum of centres and spreads ( -5.651613,  5.651613,  5.651613 )    10.13649266
 
     62     0.160E-13     0.0000000131       10.1364926616       0.27  <-- CONV
        O_D=      0.0158750 O_OD=      3.6143530 O_TOT=     10.1364927 <-- SPRD
 Delta: O_D= -0.8673617E-15 O_OD=  0.1554312E-13 O_TOT=  0.1598721E-13 <-- DLTA
 ------------------------------------------------------------------------------
 Cycle:     63
  WF centre and spread    1  ( -1.412903,  1.412903,  1.412903 )     1.63710679
  WF centre and spread    2  ( -1.412903,  1.412903,  1.412903 )     2.83312863
  WF centre and spread    3  ( -1.412903,  1.412903,  1.412903 )     2.83312863
  WF centre and spread    4  ( -1.412903,  1.412903,  1.412903 )     2.83312862
  Sum of centres and spreads ( -5.651613,  5.651613,  5.651613 )    10.13649266
 
     63    -0.533E-14     0.0000000131       10.1364926616       0.27  <-- CONV
        O_D=      0.0158750 O_OD=      3.6143530 O_TOT=     10.1364927 <-- SPRD
 Delta: O_D= -0.4571447E-11 O_OD=  0.4567458E-11 O_TOT= -0.5329071E-14 <-- DLTA
 ------------------------------------------------------------------------------
 Cycle:     64
  WF centre and spread    1  ( -1.412903,  1.412903,  1.412903 )     1.63710679
  WF centre and spread    2  ( -1.412903,  1.412903,  1.412903 )     2.83312863
  WF centre and spread    3  ( -1.412903,  1.412903,  1.412903 )     2.83312863
  WF centre and spread    4  ( -1.412903,  1.412903,  1.412903 )     2.83312862
  Sum of centres and spreads ( -5.651613,  5.651613,  5.651613 )    10.13649266
 
     64    -0.355E-14     0.0000000122       10.1364926616       0.28  <-- CONV
        O_D=      0.0158750 O_OD=      3.6143530 O_TOT=     10.1364927 <-- SPRD
 Delta: O_D= -0.4350714E-11 O_OD=  0.4346745E-11 O_TOT= -0.3552714E-14 <-- DLTA
 ------------------------------------------------------------------------------
 Cycle:     65
  WF centre and spread    1  ( -1.412903,  1.412903,  1.412903 )     1.63710679
  WF centre and spread    2  ( -1.412903,  1.412903,  1.412903 )     2.83312863
  WF centre and spread    3  ( -1.412903,  1.412903,  1.412903 )     2.83312863
  WF centre and spread    4  ( -1.412903,  1.412903,  1.412903 )     2.83312862
  Sum of centres and spreads ( -5.651613,  5.651613,  5.651613 )    10.13649266
 
     65     0.533E-14     0.0000000115       10.1364926616       0.28  <-- CONV
        O_D=      0.0158750 O_OD=      3.6143530 O_TOT=     10.1364927 <-- SPRD
 Delta: O_D= -0.1516148E-14 O_OD=  0.7549517E-14 O_TOT=  0.5329071E-14 <-- DLTA
 ------------------------------------------------------------------------------
 Cycle:     66
  WF centre and spread    1  ( -1.412903,  1.412903,  1.412903 )     1.63710679
  WF centre and spread    2  ( -1.412903,  1.412903,  1.412903 )     2.83312863
  WF centre and spread    3  ( -1.412903,  1.412903,  1.412903 )     2.83312863
  WF centre and spread    4  ( -1.412903,  1.412903,  1.412903 )     2.83312862
  Sum of centres and spreads ( -5.651613,  5.651613,  5.651613 )    10.13649266
 
     66    -0.107E-13     0.0000000115       10.1364926616       0.28  <-- CONV
        O_D=      0.0158750 O_OD=      3.6143530 O_TOT=     10.1364927 <-- SPRD
 Delta: O_D= -0.2962908E-14 O_OD= -0.7993606E-14 O_TOT= -0.1065814E-13 <-- DLTA
 ------------------------------------------------------------------------------
 Cycle:     67
  WF centre and spread    1  ( -1.412903,  1.412903,  1.412903 )     1.63710679
  WF centre and spread    2  ( -1.412903,  1.412903,  1.412903 )     2.83312863
  WF centre and spread    3  ( -1.412903,  1.412903,  1.412903 )     2.83312863
  WF centre and spread    4  ( -1.412903,  1.412903,  1.412903 )     2.83312862
  Sum of centres and spreads ( -5.651613,  5.651613,  5.651613 )    10.13649266
 
     67     0.533E-14     0.0000000115       10.1364926616       0.29  <-- CONV
        O_D=      0.0158750 O_OD=      3.6143530 O_TOT=     10.1364927 <-- SPRD
 Delta: O_D= -0.1096345E-14 O_OD=  0.5329071E-14 O_TOT=  0.5329071E-14 <-- DLTA
 ------------------------------------------------------------------------------
 Cycle:     68
  WF centre and spread    1  ( -1.412903,  1.412903,  1.412903 )     1.63710679
  WF centre and spread    2  ( -1.412903,  1.412903,  1.412903 )     2.83312863
  WF centre and spread    3  ( -1.412903,  1.412903,  1.412903 )     2.83312863
  WF centre and spread    4  ( -1.412903,  1.412903,  1.412903 )     2.83312862
  Sum of centres and spreads ( -5.651613,  5.651613,  5.651613 )    10.13649266
 
     68    -0.888E-14     0.0000000115       10.1364926616       0.29  <-- CONV
        O_D=      0.0158750 O_OD=      3.6143530 O_TOT=     10.1364927 <-- SPRD
 Delta: O_D= -0.1991463E-14 O_OD= -0.5773160E-14 O_TOT= -0.8881784E-14 <-- DLTA
 ------------------------------------------------------------------------------
 Cycle:     69
  WF centre and spread    1  ( -1.412903,  1.412903,  1.412903 )     1.63710679
  WF centre and spread    2  ( -1.412903,  1.412903,  1.412903 )     2.83312863
  WF centre and spread    3  ( -1.412903,  1.412903,  1.412903 )     2.83312863
  WF centre and spread    4  ( -1.412903,  1.412903,  1.412903 )     2.83312862
  Sum of centres and spreads ( -5.651613,  5.651613,  5.651613 )    10.13649266
 
     69     0.000E+00     0.0000000115       10.1364926616       0.30  <-- CONV
        O_D=      0.0158750 O_OD=      3.6143530 O_TOT=     10.1364927 <-- SPRD
 Delta: O_D= -0.4163336E-15 O_OD=  0.8881784E-15 O_TOT=  0.0000000E+00 <-- DLTA
 ------------------------------------------------------------------------------
 Cycle:     70
  WF centre and spread    1  ( -1.412903,  1.412903,  1.412903 )     1.63710679
  WF centre and spread    2  ( -1.412903,  1.412903,  1.412903 )     2.83312863
  WF centre and spread    3  ( -1.412903,  1.412903,  1.412903 )     2.83312863
  WF centre and spread    4  ( -1.412903,  1.412903,  1.412903 )     2.83312862
  Sum of centres and spreads ( -5.651613,  5.651613,  5.651613 )    10.13649266
 
     70     0.178E-14     0.0000000115       10.1364926616       0.30  <-- CONV
        O_D=      0.0158750 O_OD=      3.6143530 O_TOT=     10.1364927 <-- SPRD
 Delta: O_D= -0.4996004E-15 O_OD=  0.8881784E-15 O_TOT=  0.1776357E-14 <-- DLTA
 ------------------------------------------------------------------------------
 Cycle:     71
  WF centre and spread    1  ( -1.412903,  1.412903,  1.412903 )     1.63710679
  WF centre and spread    2  ( -1.412903,  1.412903,  1.412903 )     2.83312863
  WF centre and spread    3  ( -1.412903,  1.412903,  1.412903 )     2.83312863
  WF centre and spread    4  ( -1.412903,  1.412903,  1.412903 )     2.83312862
  Sum of centres and spreads ( -5.651613,  5.651613,  5.651613 )    10.13649266
 
     71     0.000E+00     0.0000000115       10.1364926616       0.30  <-- CONV
        O_D=      0.0158750 O_OD=      3.6143530 O_TOT=     10.1364927 <-- SPRD
 Delta: O_D= -0.4787837E-15 O_OD=  0.4440892E-15 O_TOT=  0.0000000E+00 <-- DLTA
 ------------------------------------------------------------------------------
 Cycle:     72
  WF centre and spread    1  ( -1.412903,  1.412903,  1.412903 )     1.63710679
  WF centre and spread    2  ( -1.412903,  1.412903,  1.412903 )     2.83312863
  WF centre and spread    3  ( -1.412903,  1.412903,  1.412903 )     2.83312863
  WF centre and spread    4  ( -1.412903,  1.412903,  1.412903 )     2.83312862
  Sum of centres and spreads ( -5.651613,  5.651613,  5.651613 )    10.13649266
 
     72     0.178E-14     0.0000000115       10.1364926616       0.31  <-- CONV
        O_D=      0.0158750 O_OD=      3.6143530 O_TOT=     10.1364927 <-- SPRD
 Delta: O_D= -0.3400058E-15 O_OD=  0.2664535E-14 O_TOT=  0.1776357E-14 <-- DLTA
 ------------------------------------------------------------------------------
 Cycle:     73
  WF centre and spread    1  ( -1.412903,  1.412903,  1.412903 )     1.63710679
  WF centre and spread    2  ( -1.412903,  1.412903,  1.412903 )     2.83312863
  WF centre and spread    3  ( -1.412903,  1.412903,  1.412903 )     2.83312863
  WF centre and spread    4  ( -1.412903,  1.412903,  1.412903 )     2.83312862
  Sum of centres and spreads ( -5.651613,  5.651613,  5.651613 )    10.13649266
 
     73     0.000E+00     0.0000000115       10.1364926616       0.31  <-- CONV
        O_D=      0.0158750 O_OD=      3.6143530 O_TOT=     10.1364927 <-- SPRD
 Delta: O_D= -0.4267420E-15 O_OD=  0.1776357E-14 O_TOT=  0.0000000E+00 <-- DLTA
 ------------------------------------------------------------------------------
 Cycle:     74
  WF centre and spread    1  ( -1.412903,  1.412903,  1.412903 )     1.63710679
  WF centre and spread    2  ( -1.412903,  1.412903,  1.412903 )     2.83312863
  WF centre and spread    3  ( -1.412903,  1.412903,  1.412903 )     2.83312863
  WF centre and spread    4  ( -1.412903,  1.412903,  1.412903 )     2.83312862
  Sum of centres and spreads ( -5.651613,  5.651613,  5.651613 )    10.13649266
 
     74    -0.355E-14     0.0000000115       10.1364926616       0.31  <-- CONV
        O_D=      0.0158750 O_OD=      3.6143530 O_TOT=     10.1364927 <-- SPRD
 Delta: O_D= -0.3434752E-15 O_OD= -0.3996803E-14 O_TOT= -0.3552714E-14 <-- DLTA
 ------------------------------------------------------------------------------
 Cycle:     75
  WF centre and spread    1  ( -1.412903,  1.412903,  1.412903 )     1.63710679
  WF centre and spread    2  ( -1.412903,  1.412903,  1.412903 )     2.83312863
  WF centre and spread    3  ( -1.412903,  1.412903,  1.412903 )     2.83312863
  WF centre and spread    4  ( -1.412903,  1.412903,  1.412903 )     2.83312862
  Sum of centres and spreads ( -5.651613,  5.651613,  5.651613 )    10.13649266
 
     75     0.178E-14     0.0000000115       10.1364926616       0.32  <-- CONV
        O_D=      0.0158750 O_OD=      3.6143530 O_TOT=     10.1364927 <-- SPRD
 Delta: O_D= -0.3538836E-15 O_OD=  0.1332268E-14 O_TOT=  0.1776357E-14 <-- DLTA
 ------------------------------------------------------------------------------
 Cycle:     76
  WF centre and spread    1  ( -1.412903,  1.412903,  1.412903 )     1.63710679
  WF centre and spread    2  ( -1.412903,  1.412903,  1.412903 )     2.83312863
  WF centre and spread    3  ( -1.412903,  1.412903,  1.412903 )     2.83312863
  WF centre and spread    4  ( -1.412903,  1.412903,  1.412903 )     2.83312862
  Sum of centres and spreads ( -5.651613,  5.651613,  5.651613 )    10.13649266
 
     76    -0.178E-14     0.0000000115       10.1364926616       0.32  <-- CONV
        O_D=      0.0158750 O_OD=      3.6143530 O_TOT=     10.1364927 <-- SPRD
 Delta: O_D= -0.3573530E-15 O_OD= -0.2220446E-14 O_TOT= -0.1776357E-14 <-- DLTA
 ------------------------------------------------------------------------------
 Cycle:     77
  WF centre and spread    1  ( -1.412903,  1.412903,  1.412903 )     1.63710679
  WF centre and spread    2  ( -1.412903,  1.412903,  1.412903 )     2.83312863
  WF centre and spread    3  ( -1.412903,  1.412903,  1.412903 )     2.83312863
  WF centre and spread    4  ( -1.412903,  1.412903,  1.412903 )     2.83312862
  Sum of centres and spreads ( -5.651613,  5.651613,  5.651613 )    10.13649266
 
     77     0.000E+00     0.0000000115       10.1364926616       0.33  <-- CONV
        O_D=      0.0158750 O_OD=      3.6143530 O_TOT=     10.1364927 <-- SPRD
 Delta: O_D= -0.2671474E-15 O_OD=  0.4440892E-15 O_TOT=  0.0000000E+00 <-- DLTA
 ------------------------------------------------------------------------------
 Cycle:     78
  WF centre and spread    1  ( -1.412903,  1.412903,  1.412903 )     1.63710679
  WF centre and spread    2  ( -1.412903,  1.412903,  1.412903 )     2.83312863
  WF centre and spread    3  ( -1.412903,  1.412903,  1.412903 )     2.83312863
  WF centre and spread    4  ( -1.412903,  1.412903,  1.412903 )     2.83312862
  Sum of centres and spreads ( -5.651613,  5.651613,  5.651613 )    10.13649266
 
     78     0.533E-14     0.0000000115       10.1364926616       0.33  <-- CONV
        O_D=      0.0158750 O_OD=      3.6143530 O_TOT=     10.1364927 <-- SPRD
 Delta: O_D= -0.3053113E-15 O_OD=  0.7105427E-14 O_TOT=  0.5329071E-14 <-- DLTA
 ------------------------------------------------------------------------------
 Cycle:     79
  WF centre and spread    1  ( -1.412903,  1.412903,  1.412903 )     1.63710679
  WF centre and spread    2  ( -1.412903,  1.412903,  1.412903 )     2.83312863
  WF centre and spread    3  ( -1.412903,  1.412903,  1.412903 )     2.83312863
  WF centre and spread    4  ( -1.412903,  1.412903,  1.412903 )     2.83312862
  Sum of centres and spreads ( -5.651613,  5.651613,  5.651613 )    10.13649266
 
     79    -0.355E-14     0.0000000115       10.1364926616       0.33  <-- CONV
        O_D=      0.0158750 O_OD=      3.6143530 O_TOT=     10.1364927 <-- SPRD
 Delta: O_D= -0.3677614E-15 O_OD= -0.2220446E-14 O_TOT= -0.3552714E-14 <-- DLTA
 ------------------------------------------------------------------------------
 Cycle:     80
  WF centre and spread    1  ( -1.412903,  1.412903,  1.412903 )     1.63710679
  WF centre and spread    2  ( -1.412903,  1.412903,  1.412903 )     2.83312863
  WF centre and spread    3  ( -1.412903,  1.412903,  1.412903 )     2.83312863
  WF centre and spread    4  ( -1.412903,  1.412903,  1.412903 )     2.83312862
  Sum of centres and spreads ( -5.651613,  5.651613,  5.651613 )    10.13649266
 
     80     0.888E-14     0.0000000115       10.1364926616       0.34  <-- CONV
        O_D=      0.0158750 O_OD=      3.6143530 O_TOT=     10.1364927 <-- SPRD
 Delta: O_D= -0.3747003E-15 O_OD=  0.8437695E-14 O_TOT=  0.8881784E-14 <-- DLTA
 ------------------------------------------------------------------------------
 Cycle:     81
  WF centre and spread    1  ( -1.412903,  1.412903,  1.412903 )     1.63710679
  WF centre and spread    2  ( -1.412903,  1.412903,  1.412903 )     2.83312863
  WF centre and spread    3  ( -1.412903,  1.412903,  1.412903 )     2.83312863
  WF centre and spread    4  ( -1.412903,  1.412903,  1.412903 )     2.83312862
  Sum of centres and spreads ( -5.651613,  5.651613,  5.651613 )    10.13649266
 
     81     0.178E-14     0.0000000115       10.1364926616       0.34  <-- CONV
        O_D=      0.0158750 O_OD=      3.6143530 O_TOT=     10.1364927 <-- SPRD
 Delta: O_D= -0.4232725E-15 O_OD=  0.4440892E-15 O_TOT=  0.1776357E-14 <-- DLTA
 ------------------------------------------------------------------------------
 Cycle:     82
  WF centre and spread    1  ( -1.412903,  1.412903,  1.412903 )     1.63710679
  WF centre and spread    2  ( -1.412903,  1.412903,  1.412903 )     2.83312863
  WF centre and spread    3  ( -1.412903,  1.412903,  1.412903 )     2.83312863
  WF centre and spread    4  ( -1.412903,  1.412903,  1.412903 )     2.83312862
  Sum of centres and spreads ( -5.651613,  5.651613,  5.651613 )    10.13649266
 
     82     0.355E-14     0.0000000115       10.1364926616       0.35  <-- CONV
        O_D=      0.0158750 O_OD=      3.6143530 O_TOT=     10.1364927 <-- SPRD
 Delta: O_D= -0.5655199E-15 O_OD=  0.6217249E-14 O_TOT=  0.3552714E-14 <-- DLTA
 ------------------------------------------------------------------------------
 Cycle:     83
  WF centre and spread    1  ( -1.412903,  1.412903,  1.412903 )     1.63710679
  WF centre and spread    2  ( -1.412903,  1.412903,  1.412903 )     2.83312863
  WF centre and spread    3  ( -1.412903,  1.412903,  1.412903 )     2.83312863
  WF centre and spread    4  ( -1.412903,  1.412903,  1.412903 )     2.83312862
  Sum of centres and spreads ( -5.651613,  5.651613,  5.651613 )    10.13649266
 
     83    -0.178E-14     0.0000000115       10.1364926616       0.35  <-- CONV
        O_D=      0.0158750 O_OD=      3.6143530 O_TOT=     10.1364927 <-- SPRD
 Delta: O_D= -0.1183081E-14 O_OD= -0.1776357E-14 O_TOT= -0.1776357E-14 <-- DLTA
 ------------------------------------------------------------------------------
 Cycle:     84
  WF centre and spread    1  ( -1.412903,  1.412903,  1.412903 )     1.63710679
  WF centre and spread    2  ( -1.412903,  1.412903,  1.412903 )     2.83312863
  WF centre and spread    3  ( -1.412903,  1.412903,  1.412903 )     2.83312863
  WF centre and spread    4  ( -1.412903,  1.412903,  1.412903 )     2.83312862
  Sum of centres and spreads ( -5.651613,  5.651613,  5.651613 )    10.13649266
 
     84    -0.178E-14     0.0000000115       10.1364926616       0.35  <-- CONV
        O_D=      0.0158750 O_OD=      3.6143530 O_TOT=     10.1364927 <-- SPRD
 Delta: O_D= -0.6349088E-15 O_OD=  0.0000000E+00 O_TOT= -0.1776357E-14 <-- DLTA
 ------------------------------------------------------------------------------
 Cycle:     85
  WF centre and spread    1  ( -1.412903,  1.412903,  1.412903 )     1.63710679
  WF centre and spread    2  ( -1.412903,  1.412903,  1.412903 )     2.83312863
  WF centre and spread    3  ( -1.412903,  1.412903,  1.412903 )     2.83312863
  WF centre and spread    4  ( -1.412903,  1.412903,  1.412903 )     2.83312862
  Sum of centres and spreads ( -5.651613,  5.651613,  5.651613 )    10.13649266
 
     85     0.178E-14     0.0000000115       10.1364926616       0.36  <-- CONV
        O_D=      0.0158750 O_OD=      3.6143530 O_TOT=     10.1364927 <-- SPRD
 Delta: O_D= -0.7285839E-15 O_OD=  0.2220446E-14 O_TOT=  0.1776357E-14 <-- DLTA
 ------------------------------------------------------------------------------
 Cycle:     86
  WF centre and spread    1  ( -1.412903,  1.412903,  1.412903 )     1.63710679
  WF centre and spread    2  ( -1.412903,  1.412903,  1.412903 )     2.83312863
  WF centre and spread    3  ( -1.412903,  1.412903,  1.412903 )     2.83312863
  WF centre and spread    4  ( -1.412903,  1.412903,  1.412903 )     2.83312862
  Sum of centres and spreads ( -5.651613,  5.651613,  5.651613 )    10.13649266
 
     86     0.178E-14     0.0000000115       10.1364926616       0.36  <-- CONV
        O_D=      0.0158750 O_OD=      3.6143530 O_TOT=     10.1364927 <-- SPRD
 Delta: O_D= -0.8465451E-15 O_OD=  0.8881784E-15 O_TOT=  0.1776357E-14 <-- DLTA
 ------------------------------------------------------------------------------
 Cycle:     87
  WF centre and spread    1  ( -1.412903,  1.412903,  1.412903 )     1.63710679
  WF centre and spread    2  ( -1.412903,  1.412903,  1.412903 )     2.83312863
  WF centre and spread    3  ( -1.412903,  1.412903,  1.412903 )     2.83312863
  WF centre and spread    4  ( -1.412903,  1.412903,  1.412903 )     2.83312862
  Sum of centres and spreads ( -5.651613,  5.651613,  5.651613 )    10.13649266
 
     87     0.178E-13     0.0000000115       10.1364926616       0.37  <-- CONV
        O_D=      0.0158750 O_OD=      3.6143530 O_TOT=     10.1364927 <-- SPRD
 Delta: O_D= -0.1991463E-14 O_OD=  0.2087219E-13 O_TOT=  0.1776357E-13 <-- DLTA
 ------------------------------------------------------------------------------
 Cycle:     88
  WF centre and spread    1  ( -1.412903,  1.412903,  1.412903 )     1.63710679
  WF centre and spread    2  ( -1.412903,  1.412903,  1.412903 )     2.83312863
  WF centre and spread    3  ( -1.412903,  1.412903,  1.412903 )     2.83312863
  WF centre and spread    4  ( -1.412903,  1.412903,  1.412903 )     2.83312862
  Sum of centres and spreads ( -5.651613,  5.651613,  5.651613 )    10.13649266
 
     88    -0.178E-13     0.0000000115       10.1364926616       0.37  <-- CONV
        O_D=      0.0158750 O_OD=      3.6143530 O_TOT=     10.1364927 <-- SPRD
 Delta: O_D= -0.4117484E-11 O_OD=  0.4100276E-11 O_TOT= -0.1776357E-13 <-- DLTA
 ------------------------------------------------------------------------------
 Cycle:     89
  WF centre and spread    1  ( -1.412903,  1.412903,  1.412903 )     1.63710679
  WF centre and spread    2  ( -1.412903,  1.412903,  1.412903 )     2.83312863
  WF centre and spread    3  ( -1.412903,  1.412903,  1.412903 )     2.83312863
  WF centre and spread    4  ( -1.412903,  1.412903,  1.412903 )     2.83312862
  Sum of centres and spreads ( -5.651613,  5.651613,  5.651613 )    10.13649266
 
     89     0.000E+00     0.0000000108       10.1364926616       0.37  <-- CONV
        O_D=      0.0158750 O_OD=      3.6143530 O_TOT=     10.1364927 <-- SPRD
 Delta: O_D= -0.6904199E-15 O_OD=  0.4440892E-15 O_TOT=  0.0000000E+00 <-- DLTA
 ------------------------------------------------------------------------------
 Cycle:     90
  WF centre and spread    1  ( -1.412903,  1.412903,  1.412903 )     1.63710679
  WF centre and spread    2  ( -1.412903,  1.412903,  1.412903 )     2.83312863
  WF centre and spread    3  ( -1.412903,  1.412903,  1.412903 )     2.83312863
  WF centre and spread    4  ( -1.412903,  1.412903,  1.412903 )     2.83312862
  Sum of centres and spreads ( -5.651613,  5.651613,  5.651613 )    10.13649266
 
     90     0.000E+00     0.0000000108       10.1364926616       0.37  <-- CONV
        O_D=      0.0158750 O_OD=      3.6143530 O_TOT=     10.1364927 <-- SPRD
 Delta: O_D= -0.3885472E-11 O_OD=  0.3885336E-11 O_TOT=  0.0000000E+00 <-- DLTA
 ------------------------------------------------------------------------------
 Cycle:     91
  WF centre and spread    1  ( -1.412903,  1.412903,  1.412903 )     1.63710679
  WF centre and spread    2  ( -1.412903,  1.412903,  1.412903 )     2.83312863
  WF centre and spread    3  ( -1.412903,  1.412903,  1.412903 )     2.83312863
  WF centre and spread    4  ( -1.412903,  1.412903,  1.412903 )     2.83312862
  Sum of centres and spreads ( -5.651613,  5.651613,  5.651613 )    10.13649266
 
     91     0.000E+00     0.0000000101       10.1364926616       0.38  <-- CONV
        O_D=      0.0158750 O_OD=      3.6143530 O_TOT=     10.1364927 <-- SPRD
 Delta: O_D= -0.1026956E-14 O_OD=  0.1332268E-14 O_TOT=  0.0000000E+00 <-- DLTA
 ------------------------------------------------------------------------------
 Cycle:     92
  WF centre and spread    1  ( -1.412903,  1.412903,  1.412903 )     1.63710679
  WF centre and spread    2  ( -1.412903,  1.412903,  1.412903 )     2.83312863
  WF centre and spread    3  ( -1.412903,  1.412903,  1.412903 )     2.83312863
  WF centre and spread    4  ( -1.412903,  1.412903,  1.412903 )     2.83312862
  Sum of centres and spreads ( -5.651613,  5.651613,  5.651613 )    10.13649266
 
     92     0.178E-13     0.0000000101       10.1364926616       0.38  <-- CONV
        O_D=      0.0158750 O_OD=      3.6143530 O_TOT=     10.1364927 <-- SPRD
 Delta: O_D= -0.1096345E-14 O_OD=  0.1731948E-13 O_TOT=  0.1776357E-13 <-- DLTA
 ------------------------------------------------------------------------------
 Cycle:     93
  WF centre and spread    1  ( -1.412903,  1.412903,  1.412903 )     1.63710679
  WF centre and spread    2  ( -1.412903,  1.412903,  1.412903 )     2.83312863
  WF centre and spread    3  ( -1.412903,  1.412903,  1.412903 )     2.83312863
  WF centre and spread    4  ( -1.412903,  1.412903,  1.412903 )     2.83312862
  Sum of centres and spreads ( -5.651613,  5.651613,  5.651613 )    10.13649266
 
     93    -0.178E-14     0.0000000101       10.1364926616       0.38  <-- CONV
        O_D=      0.0158750 O_OD=      3.6143530 O_TOT=     10.1364927 <-- SPRD
 Delta: O_D= -0.3659600E-11 O_OD=  0.3659739E-11 O_TOT= -0.1776357E-14 <-- DLTA
 ------------------------------------------------------------------------------
 Cycle:     94
  WF centre and spread    1  ( -1.412903,  1.412903,  1.412903 )     1.63710679
  WF centre and spread    2  ( -1.412903,  1.412903,  1.412903 )     2.83312863
  WF centre and spread    3  ( -1.412903,  1.412903,  1.412903 )     2.83312863
  WF centre and spread    4  ( -1.412903,  1.412903,  1.412903 )     2.83312862
  Sum of centres and spreads ( -5.651613,  5.651613,  5.651613 )    10.13649266
 
     94    -0.355E-14     0.0000000095       10.1364926616       0.39  <-- CONV
        O_D=      0.0158750 O_OD=      3.6143530 O_TOT=     10.1364927 <-- SPRD
 Delta: O_D= -0.3443260E-11 O_OD=  0.3439027E-11 O_TOT= -0.3552714E-14 <-- DLTA
 ------------------------------------------------------------------------------
 Cycle:     95
  WF centre and spread    1  ( -1.412903,  1.412903,  1.412903 )     1.63710679
  WF centre and spread    2  ( -1.412903,  1.412903,  1.412903 )     2.83312863
  WF centre and spread    3  ( -1.412903,  1.412903,  1.412903 )     2.83312863
  WF centre and spread    4  ( -1.412903,  1.412903,  1.412903 )     2.83312862
  Sum of centres and spreads ( -5.651613,  5.651613,  5.651613 )    10.13649266
 
     95    -0.107E-13     0.0000000089       10.1364926616       0.39  <-- CONV
        O_D=      0.0158750 O_OD=      3.6143530 O_TOT=     10.1364927 <-- SPRD
 Delta: O_D= -0.3237702E-11 O_OD=  0.3227640E-11 O_TOT= -0.1065814E-13 <-- DLTA
 ------------------------------------------------------------------------------
 Cycle:     96
  WF centre and spread    1  ( -1.412903,  1.412903,  1.412903 )     1.63710679
  WF centre and spread    2  ( -1.412903,  1.412903,  1.412903 )     2.83312863
  WF centre and spread    3  ( -1.412903,  1.412903,  1.412903 )     2.83312863
  WF centre and spread    4  ( -1.412903,  1.412903,  1.412903 )     2.83312862
  Sum of centres and spreads ( -5.651613,  5.651613,  5.651613 )    10.13649266
 
     96    -0.533E-14     0.0000000084       10.1364926616       0.39  <-- CONV
        O_D=      0.0158750 O_OD=      3.6143530 O_TOT=     10.1364927 <-- SPRD
 Delta: O_D= -0.3043253E-11 O_OD=  0.3037126E-11 O_TOT= -0.5329071E-14 <-- DLTA
 ------------------------------------------------------------------------------
 Cycle:     97
  WF centre and spread    1  ( -1.412903,  1.412903,  1.412903 )     1.63710679
  WF centre and spread    2  ( -1.412903,  1.412903,  1.412903 )     2.83312863
  WF centre and spread    3  ( -1.412903,  1.412903,  1.412903 )     2.83312863
  WF centre and spread    4  ( -1.412903,  1.412903,  1.412903 )     2.83312862
  Sum of centres and spreads ( -5.651613,  5.651613,  5.651613 )    10.13649266
 
     97    -0.711E-14     0.0000000079       10.1364926616       0.39  <-- CONV
        O_D=      0.0158750 O_OD=      3.6143530 O_TOT=     10.1364927 <-- SPRD
 Delta: O_D= -0.2859782E-11 O_OD=  0.2853717E-11 O_TOT= -0.7105427E-14 <-- DLTA
 ------------------------------------------------------------------------------
 Cycle:     98
  WF centre and spread    1  ( -1.412903,  1.412903,  1.412903 )     1.63710679
  WF centre and spread    2  ( -1.412903,  1.412903,  1.412903 )     2.83312863
  WF centre and spread    3  ( -1.412903,  1.412903,  1.412903 )     2.83312863
  WF centre and spread    4  ( -1.412903,  1.412903,  1.412903 )     2.83312862
  Sum of centres and spreads ( -5.651613,  5.651613,  5.651613 )    10.13649266
 
     98     0.178E-14     0.0000000074       10.1364926616       0.40  <-- CONV
        O_D=      0.0158750 O_OD=      3.6143530 O_TOT=     10.1364927 <-- SPRD
 Delta: O_D= -0.1318390E-15 O_OD=  0.1332268E-14 O_TOT=  0.1776357E-14 <-- DLTA
 ------------------------------------------------------------------------------
 Cycle:     99
  WF centre and spread    1  ( -1.412903,  1.412903,  1.412903 )     1.63710679
  WF centre and spread    2  ( -1.412903,  1.412903,  1.412903 )     2.83312863
  WF centre and spread    3  ( -1.412903,  1.412903,  1.412903 )     2.83312863
  WF centre and spread    4  ( -1.412903,  1.412903,  1.412903 )     2.83312862
  Sum of centres and spreads ( -5.651613,  5.651613,  5.651613 )    10.13649266
 
     99     0.355E-14     0.0000000074       10.1364926616       0.40  <-- CONV
        O_D=      0.0158750 O_OD=      3.6143530 O_TOT=     10.1364927 <-- SPRD
 Delta: O_D= -0.2844947E-15 O_OD=  0.3996803E-14 O_TOT=  0.3552714E-14 <-- DLTA
 ------------------------------------------------------------------------------
 Cycle:    100
  WF centre and spread    1  ( -1.412903,  1.412903,  1.412903 )     1.63710679
  WF centre and spread    2  ( -1.412903,  1.412903,  1.412903 )     2.83312863
  WF centre and spread    3  ( -1.412903,  1.412903,  1.412903 )     2.83312863
  WF centre and spread    4  ( -1.412903,  1.412903,  1.412903 )     2.83312862
  Sum of centres and spreads ( -5.651613,  5.651613,  5.651613 )    10.13649266
 
    100    -0.178E-14     0.0000000074       10.1364926616       0.40  <-- CONV
        O_D=      0.0158750 O_OD=      3.6143530 O_TOT=     10.1364927 <-- SPRD
 Delta: O_D= -0.2463307E-15 O_OD= -0.2664535E-14 O_TOT= -0.1776357E-14 <-- DLTA
 ------------------------------------------------------------------------------

 Writing checkpoint file GaAs.chk... done

 Final State
  WF centre and spread    1  ( -1.412903,  1.412903,  1.412903 )     1.63710679
  WF centre and spread    2  ( -1.412903,  1.412903,  1.412903 )     2.83312863
  WF centre and spread    3  ( -1.412903,  1.412903,  1.412903 )     2.83312863
  WF centre and spread    4  ( -1.412903,  1.412903,  1.412903 )     2.83312862
  Sum of centres and spreads ( -5.651613,  5.651613,  5.651613 )    10.13649266
 
         Spreads (Ang^2)       Omega I      =     6.506264726
        ================       Omega D      =     0.015874955
                               Omega OD     =     3.614352981
    Final Spread (Ang^2)       Omega Total  =    10.136492662
 ------------------------------------------------------------------------------
 Time for wannierise            0.346 (sec)

 Writing checkpoint file GaAs.chk... done

 Total Execution Time           0.406 (sec)

 *===========================================================================*
 |                             TIMING INFORMATION                            |
 *===========================================================================*
 |    Tag                                                Ncalls      Time (s)|
 |---------------------------------------------------------------------------|
 |kmesh: get                                        :         1         0.031|
 |overlap: read                                     :         1         0.013|
 |wann: main                                        :         1         0.346|
 *---------------------------------------------------------------------------*
 
 All done: wannier90 exiting
